LAMMPS data file via write_data, version 17 Apr 2024, timestep = 4951450, units = real

3000 atoms
2 atom types

2.528293383082598 38.571706616919116 xlo xhi
2.5258327569117824 38.53416724307452 ylo yhi
2.523987287295917 38.5060127126891 zlo zhi

Masses

1 15.9994
2 28.0855

Atoms # charge

2359 1 -1.2 4.066332760631322 6.349663630134465 6.786846959360591 1 0 0
69 2 2.4 4.421580907707555 5.038577553815041 5.822634985023484 1 0 0
2413 1 -1.2 5.222257890325309 5.710196624839581 4.572162646222017 0 1 1
427 1 -1.2 5.340073246804876 4.126140947264737 6.854868568077362 1 0 0
1014 2 2.4 5.755763113985304 5.296877423269761 3.034140234718361 0 1 1
1720 1 -1.2 3.234550067073159 4.01898059409716 5.342722656482844 0 1 0
887 1 -1.2 7.2472813835725045 4.703454730461298 3.283539445119274 1 0 1
2961 2 2.4 4.647051918222413 7.878799094634343 6.979640436060965 0 1 1
1657 1 -1.2 4.767873982512185 4.082793599777264 2.5722664201606893 1 0 0
2490 2 2.4 10.853112943618404 5.622914066514689 5.164407406453272 1 1 0
857 1 -1.2 9.769489015495022 5.066551900201851 4.129528554543007 1 1 0
770 1 -1.2 11.212137270954045 4.617458528475326 6.374807509279107 1 1 0
1524 2 2.4 8.784441031565638 4.178130554452484 3.225222828723962 0 0 1
268 1 -1.2 10.36781187053547 6.874253346965057 6.153822977410945 0 0 0
2015 1 -1.2 12.29286293706446 6.001890471711141 4.4536264955131175 0 1 1
1058 1 -1.2 8.970348470694194 2.588809565066021 3.644909729882233 1 0 1
2397 2 2.4 13.896515263522225 5.603376187376172 4.5084088272455265 0 0 0
892 1 -1.2 13.841008951850508 3.960386932783968 4.249664162049255 0 1 0
331 1 -1.2 14.63160555458185 5.8261591901365355 5.9405299237795886 0 0 1
1942 1 -1.2 17.18792114287435 5.944976851867393 6.6791841025149035 0 1 0
1383 2 2.4 15.64813204333174 5.892755308634264 7.237175117833827 0 1 1
1117 1 -1.2 14.770039855128756 6.148149649509353 3.2310169711103573 0 0 1
1108 1 -1.2 16.26593627155927 2.864636326760877 4.877105908556839 0 0 0
2142 2 2.4 14.760229085869092 2.605428764793867 4.303756079735908 0 1 0
1246 1 -1.2 18.058047336076278 2.899606678331545 2.976385941016785 0 1 0
1682 1 -1.2 18.12592219388153 6.651327158295647 4.3247897864534455 0 0 1
624 2 2.4 18.459554862030753 6.548634019162734 5.882321433000255 -1 1 1
663 2 2.4 22.165109913019222 6.387356239821069 3.234151428884708 0 0 0
2555 1 -1.2 19.747042074911523 5.576622818960885 6.206713535016104 0 1 1
2587 1 -1.2 22.181232003760037 6.449137196521246 6.875721855494906 0 1 0
955 1 -1.2 20.551021273923798 6.730693675499119 3.470623934679325 1 0 1
228 2 2.4 21.00330844136514 5.362599982918212 7.259961896195426 0 1 0
2454 2 2.4 18.92447341311148 6.821990636216691 2.873962797428173 0 0 1
2458 1 -1.2 22.1622301473431 4.700385619881521 3.0234454174497554 0 0 0
161 1 -1.2 21.801782338651797 3.9119256546170487 7.325570955725889 -2 1 1
2580 2 2.4 21.550896944070992 3.244778855190556 2.55998093926582 -1 0 1
140 1 -1.2 23.07323035135479 6.914256568901926 4.49228380333306 0 0 0
2808 2 2.4 23.486472558371343 7.100783549594479 6.078790382247241 0 0 0
2764 1 -1.2 24.79586874870719 6.185105181474978 6.538099889703134 1 0 1
2140 1 -1.2 27.26803231740154 4.939098737978915 6.0671420807988365 0 0 0
756 2 2.4 26.15969069055015 5.430588806139694 7.1394279916619805 -1 0 0
1777 1 -1.2 25.671508402388124 4.0218306750814685 7.815884116936292 -1 0 1
2807 1 -1.2 28.5343075623406 2.9735615725474807 4.542371608761728 0 1 1
66 2 2.4 28.61368111214152 4.396878380829529 5.371242860500793 -1 1 0
412 1 -1.2 29.422741053335653 5.449678687050021 4.4552865406458775 -1 0 0
2631 2 2.4 30.33008398992815 6.762155196550684 4.023512922528276 0 0 0
2098 1 -1.2 31.6888142582039 6.180145178303511 3.3469759028700192 0 0 0
2828 1 -1.2 29.5960231059585 3.8518991640134876 6.633907903972767 0 0 1
2057 1 -1.2 32.31003853032844 3.396825522524958 7.1318758926421655 0 0 1
1338 2 2.4 32.62999529034657 2.7806711600390104 5.5776726698509735 -1 0 1
1855 1 -1.2 31.288159791360275 2.748816993904695 4.564688936941971 -1 1 0
1450 1 -1.2 33.860771148191574 3.4678384700867357 4.8612570159669595 -1 1 0
1063 1 -1.2 35.626848001741465 5.293003554800845 4.453164304356946 0 0 1
1461 2 2.4 36.402779885881905 6.265866548041895 5.551999988740734 0 0 1
789 2 2.4 34.82408390785861 4.086904204369176 3.7127732248464156 -1 1 1
1924 1 -1.2 36.585225341031716 5.288613350183319 6.850365500004536 -1 1 0
53 1 -1.2 37.845589588102925 6.693300533902438 4.808605614106801 0 0 0
893 1 -1.2 35.84157997046982 2.931690816676973 3.1021034962998915 0 0 0
1799 1 -1.2 36.92038946377764 2.9366916259005014 5.972023090824885 -1 1 1
381 2 2.4 36.46827413492423 3.7352058706371505 7.304860788779078 0 0 0
1235 1 -1.2 34.085434635557505 7.2699544857757274 2.836199910680537 0 1 0
50 1 -1.2 33.83079512777813 4.723887353606699 2.564243197641968 0 0 0
2861 1 -1.2 35.57385838564241 7.515210831194506 6.177854078388195 -1 0 0
2314 1 -1.2 5.086139583520968 10.539046973636118 3.7467145407495366 -1 0 0
1854 2 2.4 3.85208472515417 9.825918525452428 4.565715381221423 0 0 1
1651 1 -1.2 4.578216258709421 8.80897080283704 5.6500464686762335 1 1 0
1659 2 2.4 6.722904298125896 10.50620853967507 3.5048342772308296 0 0 0
1016 1 -1.2 2.957653186674266 10.973791295901986 5.299938952565525 1 0 0
244 1 -1.2 3.021744268844237 8.736264964229951 3.644039161675704 1 0 1
1802 1 -1.2 7.162510798828757 9.157031889577743 2.759513540846426 1 1 0
2547 2 2.4 2.680670146092805 12.56242223502916 5.518129648858126 0 0 0
2384 1 -1.2 7.567874664013652 10.726282535713613 4.916582659683174 0 0 0
1685 1 -1.2 7.099245841051722 11.778741987903429 2.555668672719205 0 0 0
2378 1 -1.2 7.747130005680406 11.54063053703518 7.573803251021755 0 0 0
1035 2 2.4 10.38739492271746 8.415887527029756 6.759597139242249 0 1 0
2056 1 -1.2 10.843614419523925 9.372650969872382 5.459051060648134 0 0 1
2403 2 2.4 10.807310641738086 9.674265885832984 3.8230665302146023 -1 0 0
2296 1 -1.2 10.42461780687837 11.176812874123959 3.1963508872229256 0 1 -1
2967 2 2.4 8.210653911123885 11.811167777834592 5.967986961298463 1 1 0
2713 1 -1.2 12.306998662249201 9.376101840829273 3.198667314994931 0 0 0
1149 2 2.4 11.1898693759123 12.313265688946098 6.863417915380194 0 0 0
511 1 -1.2 9.664937417307 8.651138755845974 3.2296128548333813 0 0 0
2156 1 -1.2 9.841453214072136 11.920941465220368 6.082543482229218 0 0 1
2383 1 -1.2 8.822746428253378 8.659318511002622 7.343167681873158 0 0 0
402 2 2.4 11.346677799982935 12.406930938772444 38.4271419460655 0 0 0
2288 1 -1.2 12.831733280098774 11.79544374795946 2.7076312630635466 1 1 0
704 1 -1.2 14.114383225293748 10.473469810165113 4.699797652900396 0 1 0
1770 2 2.4 15.328344758734831 10.91329145422432 5.706900170253478 0 0 1
2501 1 -1.2 15.777724368738976 9.98673107124607 6.935122270830275 0 1 1
953 1 -1.2 16.543873486671366 11.228734222719346 4.64611703851862 0 0 1
2457 2 2.4 13.579280306293178 10.434587985109765 3.1304804707219596 0 1 1
2401 1 -1.2 14.883809176730049 12.390368285944675 6.283573946834068 0 0 0
2079 2 2.4 17.25621560078386 12.661406090727587 4.407071118216634 -1 0 0
1075 1 -1.2 18.897028599958652 8.014630887555715 6.470247711721266 0 1 0
1159 1 -1.2 19.652208916772015 10.207740494641834 3.579657330800969 1 1 1
2324 1 -1.2 20.79497203040238 9.75983122023069 5.966768248640282 0 1 1
2031 2 2.4 20.869162311686967 10.661788883461922 4.5421694319073485 0 0 0
1010 1 -1.2 22.318953712969265 10.388582558974395 3.804356851492901 0 0 1
2952 2 2.4 19.689721698741575 9.294679844886325 7.0834868034222955 -1 1 0
1217 1 -1.2 20.56385443591856 12.206865878927315 4.919521067095844 0 0 1
2223 2 2.4 18.49861339012292 12.285279546187686 7.385118113247086 0 0 0
1397 1 -1.2 18.759533915081196 10.667740965709836 7.227492712659774 0 0 1
2 1 -1.2 18.34196951323036 12.813231807023772 3.156505727618854 0 1 1
1348 1 -1.2 23.808165729018675 8.593449687221458 6.628580016753056 -1 0 1
2761 1 -1.2 24.656040214020333 10.567196474157646 5.146138610509944 0 0 1
966 2 2.4 24.568355693349346 10.014553665637585 6.729007079153488 0 0 0
594 2 2.4 23.948241383155413 10.50981871334087 3.629186193342654 0 0 0
2106 2 2.4 27.67002611785196 10.347416012328681 7.185221367117303 1 0 1
604 1 -1.2 24.417359127105666 11.986861469091847 3.055074531051596 -1 0 1
1411 1 -1.2 26.165838517636033 9.851339335759853 7.215662360904388 0 1 0
1900 1 -1.2 27.7208311641511 11.619679294647888 6.18946267550203 0 0 0
1847 1 -1.2 24.770266414345897 9.199889958236561 2.971878562634874 0 0 1
2741 1 -1.2 23.83361159200225 11.23789667971909 7.523342735393421 0 0 0
1041 2 2.4 28.156249446010087 12.35602493801724 4.8056689636876255 0 0 0
287 1 -1.2 30.577302930302523 7.586005454952823 5.426831215346978 0 1 1
2716 1 -1.2 29.488377476908582 7.6708615653627445 2.9903113091847566 0 1 1
605 1 -1.2 28.855798852177 9.221901718014452 6.828749164195775 0 1 1
266 1 -1.2 29.118098885444258 11.236714373248104 4.031712224489789 0 -1 0
1995 2 2.4 30.195574805621817 8.345625365709417 6.847919765693698 0 1 0
63 2 2.4 32.83633917145261 10.175884971356208 7.086594735039978 -1 0 1
1859 1 -1.2 31.62939936477642 10.366886748167653 3.1396070196510437 0 0 0
2784 2 2.4 33.05016136973413 10.718114105841964 3.897712600663673 0 1 0
1589 1 -1.2 32.84357538001916 10.609684921638854 5.504206498799026 -1 0 0
2602 1 -1.2 31.523809519294993 9.217312744762314 7.375156222315365 -1 0 1
273 2 2.4 30.105145480782525 10.987688310227709 2.7547121797555256 -1 0 1
317 1 -1.2 33.564398763368345 12.197205821997185 3.3858529932153627 0 1 1
1080 2 2.4 38.00361894368713 7.5120566494760395 3.4469542385353993 -1 0 0
251 1 -1.2 34.240698991331385 9.701282832166783 3.4432836014390307 0 0 0
2063 1 -1.2 36.52831273526007 8.244822384348367 3.25335968298598 0 1 0
279 2 2.4 35.04839279582633 8.567062290747526 2.69441805518029 0 0 1
790 1 -1.2 34.203562466440204 9.364290672554624 7.52741008783865 0 1 0
823 1 -1.2 3.6615611764237994 13.38851857318176 6.516890930567255 0 0 0
362 1 -1.2 5.753977019529233 14.87529650657714 5.934733097418221 0 1 1
2371 1 -1.2 3.5602389446286677 16.023551899989457 6.7637471911315705 1 1 1
2763 2 2.4 4.523784542703215 14.711552333413216 6.964901802204674 1 0 1
2120 1 -1.2 6.643192605344544 14.279406786965056 3.3714402451373107 1 0 0
1758 2 2.4 7.035310598437296 14.688883254337252 4.901753256743556 1 0 0
2574 2 2.4 3.201283941792714 17.627057860710813 6.972515974635291 0 0 0
238 1 -1.2 3.055324593465866 13.259192472374389 4.0652672724770635 0 0 1
739 1 -1.2 7.727784043649352 13.324009297750282 5.484332018476428 1 1 1
1700 1 -1.2 12.32624078601764 13.184107765550236 5.99074599389649 0 0 1
2258 1 -1.2 7.748612019064341 16.141774620687812 4.947322877426188 1 0 0
2086 1 -1.2 11.735466208683352 16.60623974870486 3.5270456526133245 0 1 1
220 1 -1.2 11.073210057606065 13.96883637275543 2.962034761802137 -1 -1 0
2907 2 2.4 8.301036480798784 17.565831524430486 5.48153232320302 0 0 0
2689 1 -1.2 9.918612250911902 17.78016578680731 5.140708734075281 1 -1 1
2109 2 2.4 12.091631331265736 15.211710991752971 2.7410852941597064 0 0 0
1502 1 -1.2 8.082120102527451 17.684240758554182 7.111140179628289 1 0 0
363 2 2.4 11.416903086242515 17.918025606577466 4.48579134607054 0 0 1
1325 1 -1.2 17.894431580555434 12.876278689628863 5.933089922432082 0 1 1
121 1 -1.2 16.093013840230967 13.797111858211236 4.043410133021027 0 0 1
2103 2 2.4 13.846908988437717 13.602434824401607 6.587038302697012 1 1 1
344 1 -1.2 15.636554806808167 16.24610638029403 3.322143842953607 0 0 0
282 2 2.4 14.918160328585605 14.992607017339212 4.114753196213182 0 0 1
943 1 -1.2 14.41768847891539 14.925365107092874 5.7253220908063405 0 0 1
2065 1 -1.2 13.552713992989624 14.754359941042933 3.288258728600055 1 0 0
411 2 2.4 16.51433704840349 17.497747907739836 7.007790023879479 1 0 1
1401 2 2.4 17.142844567267915 16.161042834725876 2.6957675934267957 0 -1 1
2411 1 -1.2 17.91386012703829 17.08994334090624 6.179208605322511 1 0 1
809 1 -1.2 15.193800566442548 18.02311327285513 6.244519377019479 0 1 0
2831 1 -1.2 20.002179586306738 12.987634499207147 7.336042991940886 -1 -1 0
839 1 -1.2 18.15943743593146 15.887819189723475 3.909013476611644 1 0 0
741 2 2.4 20.610921992814852 13.5345592694985 5.963859580246613 0 0 0
1506 2 2.4 19.039708958048404 16.464212093871538 5.167767195325961 0 0 1
1658 1 -1.2 22.18975509342408 13.818941074488576 5.892401491038675 0 0 0
2201 1 -1.2 19.901599591730132 15.106210857938628 5.705200954998164 0 0 0
1564 1 -1.2 22.234199159342705 14.879628699158184 3.5055529749584085 1 0 1
579 2 2.4 22.493422499204478 17.08530288902404 7.11238948822755 0 0 0
1934 1 -1.2 22.862009496537706 16.247869228795416 5.809850696756716 -1 0 0
968 1 -1.2 19.845873682649895 17.675200723081062 4.394345269158167 0 0 0
1937 1 -1.2 21.130836207600346 17.987274043868183 7.107719243457596 1 0 0
522 2 2.4 23.003728164410198 14.877663766997092 4.908236308978154 0 0 1
1417 1 -1.2 26.800102070175857 12.786908896237607 3.94738821532387 0 0 1
705 2 2.4 25.34818621349112 13.357698715577252 3.360463256958003 -1 0 0
2989 1 -1.2 24.467683232036116 14.27539793578132 4.4602700621526035 0 0 0
1042 1 -1.2 27.320371345409598 14.795798954579285 6.131720947545063 -1 -1 1
2479 1 -1.2 25.380329168831278 16.37181725023367 6.83803476428152 -1 1 0
2673 2 2.4 26.087450705032293 14.956046898242443 7.162470150742108 0 0 0
1558 1 -1.2 24.9694158679257 13.728666412018962 7.385766075550374 -1 0 1
2355 2 2.4 25.16282806591738 18.002733722547717 6.662303922386939 0 0 0
94 1 -1.2 28.804623820220538 16.157869481975982 4.433524343554228 -1 0 0
2386 1 -1.2 29.230814076558296 13.577944266728696 5.072091658337345 -1 1 0
891 2 2.4 28.85490426833707 15.083905362221152 5.661488965557366 -1 0 1
2122 1 -1.2 29.922259408151042 15.476082353421535 6.789296218372737 -1 0 1
1125 2 2.4 29.090192408218865 16.226428410912703 2.832869619093844 0 0 1
1174 1 -1.2 32.328003159783066 16.76210289520286 6.843922980680632 -1 0 1
2321 1 -1.2 37.20407617821946 13.032161715922838 6.05290379622315 0 0 1
2183 1 -1.2 34.59117374043071 13.444749489795747 6.887283142979023 0 0 0
461 1 -1.2 35.71856298433741 14.796852115374312 4.859988799587658 0 1 0
2160 2 2.4 35.993397423041415 14.127690072891687 6.368378398233344 -1 0 1
1716 2 2.4 35.56422161038162 15.362644311829271 3.313983648829692 0 0 1
1385 1 -1.2 34.30639664619059 16.405980210544463 3.0705208186595847 0 0 0
2956 1 -1.2 34.898990587551175 17.4978542350243 6.835802259574473 0 0 1
2905 1 -1.2 37.62193870246055 17.711290916500836 7.217967963865296 0 0 0
1699 1 -1.2 36.43688682416207 15.330911758065861 7.338916128765046 -1 0 1
2351 1 -1.2 36.868016369247954 16.122611447097462 2.6677089633882805 0 0 1
1241 1 -1.2 3.4579441332143164 18.668194361235784 5.667853723394739 0 0 0
432 2 2.4 3.4031093725634665 19.881960933043807 4.57223820600591 1 0 1
2395 1 -1.2 4.4556928243627505 21.082450665607894 4.773160706167536 0 1 0
78 2 2.4 5.8981211572529215 21.833068403330238 4.562214399595287 0 0 0
1138 1 -1.2 6.671623252296361 21.06773459955548 3.336759710790579 0 0 0
1895 1 -1.2 3.5337094285293364 19.303807813658292 3.069181240018505 0 0 1
2623 1 -1.2 6.889042334751505 21.599158680250966 5.848141263620679 0 0 1
473 1 -1.2 7.575975701774013 18.813816255875235 4.690396771011313 1 0 0
1572 2 2.4 7.886660747619212 19.893257841085283 3.4347608464267334 1 0 0
1782 2 2.4 7.939383787542792 21.426745863579093 7.085504043293295 0 0 0
2483 1 -1.2 11.411773435467477 19.29727096121903 3.6169217249265513 0 0 0
403 1 -1.2 11.81627679155103 21.969024044389155 3.921159453446192 0 0 0
1260 2 2.4 10.843010670844572 20.8269023595565 3.279569469267285 0 0 0
712 1 -1.2 9.267955161028407 20.73136631019709 3.603865585627004 1 0 1
694 1 -1.2 9.492575606023472 21.141804044496915 6.720758927654121 1 0 0
1271 1 -1.2 12.60329016231387 18.02694482911933 5.5799187017806435 -1 0 1
136 1 -1.2 12.276052935942642 22.883540745813544 7.713487408100463 0 0 0
2556 2 2.4 13.734374810158338 18.60467559405503 6.692552657025604 0 0 0
107 1 -1.2 13.486543608689795 20.213980386440973 7.097748374269337 0 0 1
1135 1 -1.2 14.285540505477567 22.22076713619132 2.9331288558681408 0 0 0
1320 2 2.4 13.244987689776492 22.73960152114146 4.084920766973991 0 0 0
1369 1 -1.2 13.972254561258813 22.7532012261948 5.5408065498844 0 0 0
1160 1 -1.2 22.39687640987739 18.443899229881055 4.047261676173058 -1 0 0
189 2 2.4 20.86856553863066 18.520744836061198 3.3934255097436874 0 0 0
2957 1 -1.2 20.708990563835442 20.150566896961127 3.0655208979501225 0 0 0
625 1 -1.2 21.641393970403858 20.58331304190181 7.293783953670095 0 0 0
2072 1 -1.2 21.823254145577067 22.64105900510183 3.199964487862739 0 0 -1
620 1 -1.2 22.033053615699476 22.847368748321816 5.769859085970841 1 0 0
1050 2 2.4 22.69325120761768 21.48190785059871 6.417508895991178 0 -1 1
2005 1 -1.2 23.677345965972428 18.27018771046637 7.326297418410468 1 0 0
2128 1 -1.2 24.968800106927326 18.51501487124211 5.119123842154217 0 0 1
2368 1 -1.2 23.32409381379514 20.565947512480776 5.201563359069846 0 0 1
1512 2 2.4 23.789691377573856 19.292304037841173 4.260119870983601 0 1 0
2664 2 2.4 27.347843443565296 20.249659380148014 7.418519917562658 0 -1 1
923 1 -1.2 26.35628330419256 18.908553227458924 7.323166390330055 0 1 1
1018 1 -1.2 23.956541882147363 21.95758336567069 7.403132338955804 -1 0 1
967 1 -1.2 27.999767984460068 20.418007245191177 5.913420858940553 1 1 0
645 2 2.4 25.413968758342325 22.69535667487167 7.6836433021957165 0 0 0
946 1 -1.2 24.33025509411942 19.459644748120265 2.7583854174955187 0 0 1
2434 1 -1.2 26.472565541162403 21.514556885916324 7.821479170667143 0 0 0
1786 1 -1.2 28.628769122116996 20.77163502006904 3.2197686674907264 0 1 1
1086 2 2.4 29.05616785854609 20.90250283817738 4.789802409241219 0 0 0
2658 2 2.4 31.972581780837995 19.977311021148516 4.319291754933922 0 0 1
1733 1 -1.2 30.429210637113133 20.055931842373415 4.990016897257867 0 0 0
1447 1 -1.2 32.40318528241107 21.580026384466308 4.574655430124007 0 0 0
2694 2 2.4 32.37210268986879 22.47801775519844 5.968707494584636 -1 0 0
512 1 -1.2 29.15563331452815 22.571965781112997 4.950741158472536 0 -1 0
1358 1 -1.2 32.90858943293596 18.899854297538578 5.153956275424401 0 1 0
562 1 -1.2 32.02762058570243 21.387810108486946 7.14066301173299 0 0 0
1034 1 -1.2 31.651103564871335 19.483317471060044 2.790832009666886 -1 -1 0
1392 2 2.4 33.378490395439385 18.032109608683676 6.515148766883502 -1 -1 0
68 1 -1.2 37.90499828517529 20.467727076412785 4.607673202247454 -1 0 1
720 2 2.4 36.81718165631938 21.21022522608748 3.700362695985854 0 0 0
2999 1 -1.2 35.76141710635231 22.047823301755194 4.648329253743451 0 0 1
548 1 -1.2 33.89100732106415 22.99188943416133 6.2992326678037935 -1 0 1
1466 1 -1.2 36.07416377460896 20.261581610602654 2.6134856357806617 0 0 1
1387 1 -1.2 37.62255066302034 22.306010651770613 2.7694785986771726 -1 0 1
2041 1 -1.2 5.984141724750838 23.44185763108246 4.237253651227445 0 -1 0
241 1 -1.2 5.257726700988167 26.001927676007487 4.569831484471019 0 0 0
2769 2 2.4 6.244681728813377 25.002382477962257 3.71791547140381 0 0 0
2622 2 2.4 3.9848732965561067 26.78384843846568 5.365610311081436 0 0 0
698 1 -1.2 3.948601896336058 26.287130071436888 6.928361548096798 0 0 1
2500 1 -1.2 6.61115098099734 28.11874280773296 6.633427279718672 0 -1 0
448 1 -1.2 2.682508358556292 26.532743762355885 4.406146234621737 0 -1 0
791 1 -1.2 7.811579548151058 25.521573773027505 3.6281902148039546 0 0 0
28 1 -1.2 10.049539831865086 26.652332664910823 4.613690418530928 0 -1 1
2823 2 2.4 11.272420463632509 26.671832940372745 5.689550540357743 0 -1 0
1961 1 -1.2 11.4394194358684 25.363269429601438 6.636386637617713 0 1 1
618 2 2.4 9.096377063687346 26.492256856936653 3.28597188362781 0 -1 1
1183 1 -1.2 8.378171799842626 27.949448756484852 2.9454070896557107 0 0 1
88 1 -1.2 11.327691703595839 28.022832234546314 6.631603703133902 0 0 1
1281 2 2.4 12.430646001209224 24.48830072589901 7.702970238837139 0 0 -1
2924 1 -1.2 12.694540936441282 26.71993908277557 4.726617592659363 0 1 0
2665 1 -1.2 13.170913498249204 24.376672926227567 3.657324432715227 0 0 0
888 2 2.4 13.840358424785089 25.84409363549383 4.068917660320878 1 -1 1
2526 2 2.4 15.447371645835185 25.26842057065226 6.839913919360624 1 0 1
2654 1 -1.2 14.988065362312614 25.47999012931698 5.240882903000632 -1 0 0
233 1 -1.2 16.346148146108014 26.540674406843916 7.370586593381435 -1 0 0
1285 1 -1.2 16.24491227599581 23.95970103398737 7.3732220199111485 0 0 0
1408 1 -1.2 13.912783695179238 25.12674024121633 7.488051556695377 0 0 0
55 1 -1.2 14.321478154345261 26.769238872299102 2.7806991355748747 0 0 1
1296 2 2.4 22.22645936185923 23.69359551363944 4.334931196676977 0 0 1
1402 1 -1.2 18.62447045904001 24.023074837073327 4.272310136632331 0 0 1
1818 2 2.4 19.7114068437987 25.03330534240629 4.936588522499181 1 -1 1
847 1 -1.2 21.19699347969969 24.941215701025378 4.291410843388736 0 0 0
2918 1 -1.2 19.139581720181823 26.56681029200566 4.633411811216503 1 0 0
1151 1 -1.2 19.987297718334318 25.04944948231787 6.55065891698948 0 0 1
507 2 2.4 18.32336405739221 23.627128523483716 2.712684321084358 0 0 0
838 1 -1.2 25.66274652202236 23.70344129039735 6.379390436498263 1 0 0
2158 1 -1.2 23.783089158768643 24.116425286941688 4.445853667090924 -1 0 0
2171 1 -1.2 26.27781120671743 24.226990135936138 3.7145142609899233 0 0 0
2118 2 2.4 25.28243061365277 24.52701672786576 5.031965793283463 0 -1 1
1582 1 -1.2 25.47707879719248 26.113478872219947 5.307280453233603 0 0 0
2388 2 2.4 26.285513878398163 27.484042664227534 5.020244126447661 -1 0 0
845 1 -1.2 27.89556377468364 27.269951555313558 4.8435027656742005 0 0 1
1949 1 -1.2 25.608436910281025 28.000929454738664 3.599640052962126 -1 0 0
2167 1 -1.2 28.250277258021132 25.720574582322424 2.737074573297088 0 0 1
1418 1 -1.2 31.281447418016544 23.64503928665025 5.944791948616432 0 0 1
1180 1 -1.2 28.646449481567654 24.524406337236595 6.801770819214244 0 0 -1
1950 2 2.4 29.699863297959237 24.015142484265212 5.640145476030757 -1 -1 0
2261 1 -1.2 29.78041379290511 25.388598872627284 4.667319096455724 0 0 0
1929 2 2.4 29.07242291800638 26.6221426599617 3.8747930932629804 0 0 1
1873 1 -1.2 31.936977242593656 27.251025695853638 6.118289547906208 -1 0 0
2891 1 -1.2 30.0541564359745 27.717944627796722 3.149027600041911 -1 -1 1
2123 1 -1.2 29.624487658280916 26.879673084013238 7.480698528910984 0 1 0
3000 2 2.4 31.22327804547487 27.063792714009697 7.572475037483258 0 0 0
1209 2 2.4 33.33525041104855 27.914037077226634 5.532173601912572 -1 -1 0
1043 1 -1.2 36.530207873756524 23.33065153308742 6.843668626936249 -1 -1 1
555 2 2.4 35.37618011917976 23.282137779254278 5.660451549765967 0 0 1
2212 1 -1.2 33.69775572501696 27.0260758591237 4.20983198590203 0 -1 1
758 1 -1.2 35.111475996621046 24.655473124839002 4.825703535627371 -1 0 0
2712 2 2.4 34.6642736158008 25.767713006411004 3.7176139060608895 0 0 0
1980 2 2.4 37.77009857628004 26.378084973015604 3.0639652007471287 -1 0 0
1520 1 -1.2 34.65665261047896 27.66246284421699 6.449597573388176 -1 0 0
1247 1 -1.2 36.135306788051864 26.419556398064255 3.360120793860019 0 0 0
1729 1 -1.2 36.69389202818154 25.8226091522378 7.451243312126086 0 0 0
125 1 -1.2 33.761898756194654 25.065599770181723 2.5410571036905503 -1 0 1
43 1 -1.2 4.372160996967749 28.367549719631842 5.374390307476714 0 0 1
1771 1 -1.2 6.496504751098366 29.26734626318311 4.081437778124494 1 0 0
1008 2 2.4 5.843095060519012 29.140008342112413 5.611796834844205 1 -1 0
811 1 -1.2 5.650947356596978 30.54676466211711 6.321694553825801 0 0 0
2862 2 2.4 4.862909090914789 31.970718962705153 6.527706723756753 0 -1 1
1511 1 -1.2 3.57022698778301 31.640651331868447 5.531096611721431 1 0 1
1654 1 -1.2 3.0044513822128907 32.32493336157703 2.9756959343775193 0 0 1
2520 2 2.4 7.312429418784117 29.233271123715724 2.7437291736204763 0 0 0
2822 1 -1.2 5.469124833227288 33.39153190181134 6.003089905549658 0 -1 0
1276 1 -1.2 9.119961407309603 31.535927883179127 6.645276851811595 0 0 0
2166 2 2.4 8.538665791009826 32.216509508986455 2.9427547625795456 0 -1 1
309 2 2.4 9.194303533933912 32.963958197290225 5.847432098161007 1 -1 0
2320 1 -1.2 8.335317113518833 32.7401616680639 4.4725107042968215 0 1 1
2308 1 -1.2 10.798784826054977 33.22758882336496 5.530091046524252 1 -1 1
587 1 -1.2 8.118462862430741 30.662066854429682 2.6868887739112477 0 -1 1
1192 1 -1.2 10.167152661922685 32.33189352811293 2.6695841612069984 1 0 0
1879 1 -1.2 15.844539929604444 32.40257968878165 5.850645111781504 0 0 0
816 2 2.4 15.058190639807464 32.694677978128794 4.406520339021273 0 0 1
1915 1 -1.2 14.97766131213853 31.493151282082465 3.3001845946325856 0 0 0
583 1 -1.2 13.46208808140953 33.07885684123035 4.752944840254605 0 0 1
226 1 -1.2 16.356149018605915 28.276242790379886 2.5661580356456133 0 -1 0
2475 2 2.4 19.181342718340268 28.110731687976102 5.21525911364128 0 0 0
2789 1 -1.2 17.81218723907409 32.7894991894901 7.78895855567822 0 0 0
2551 1 -1.2 18.428462906213795 28.089338963217287 6.6413420912483145 0 0 0
2725 1 -1.2 20.73535125136231 28.582234579791173 5.425281241232614 0 -1 1
2096 1 -1.2 18.47497960261088 28.971414241326627 4.007428550193408 1 0 0
144 2 2.4 22.255186808541225 29.121076146434348 5.704725062246878 -1 0 0
2429 1 -1.2 22.01889863059402 30.752515870291877 6.01366905970691 1 0 0
105 2 2.4 21.552965783844847 32.172999811174385 6.702678292980063 0 0 0
1528 1 -1.2 20.27769952330842 31.909221893459584 7.675107908538699 0 0 1
1096 1 -1.2 22.807215824605247 28.454357581566562 7.1090891359299295 0 0 1
1153 1 -1.2 23.162132752091935 28.832462834524048 4.3219021651091385 0 0 0
1725 2 2.4 24.135024797837254 28.560899243302362 3.014697824667645 -1 0 0
727 1 -1.2 25.98929586678663 28.636566034358268 6.131972629504774 1 0 0
1003 1 -1.2 27.527942320976223 30.466923654108736 7.299439479134625 0 -1 1
693 2 2.4 26.18725072246035 29.612604570491097 7.477055132658028 0 0 0
2980 1 -1.2 24.891464832139434 30.61813635703668 7.620659821963466 0 -1 0
2051 1 -1.2 22.965198904186234 32.60409115217614 7.480270545091649 0 -1 0
477 2 2.4 29.018680192371548 31.197972760600734 6.921275126006398 -1 0 1
2884 1 -1.2 29.264443455096842 31.466947255526712 5.289394382126637 0 -1 0
960 2 2.4 30.090748791499646 32.3097300954784 4.1327540317617535 0 -1 0
2285 1 -1.2 31.697013182509217 31.896602459888655 4.326122097053631 0 0 0
701 1 -1.2 33.027537583715855 29.499468628730515 5.104322817087466 -1 -1 0
480 2 2.4 33.12132459142943 31.092946457735117 4.448885700931007 0 0 0
377 1 -1.2 29.53917173459298 32.113957912257234 2.593795487717852 -1 -1 1
1692 2 2.4 2.5392202711905796 31.39397225428051 4.274823707232036 0 0 0
1841 1 -1.2 38.51989896825595 29.904121716220406 3.6035480155245967 0 0 0
2114 1 -1.2 33.826043756662926 30.925029800015707 2.9542088517449363 0 0 1
2644 1 -1.2 34.338467763894634 31.829673788083344 5.287604613214073 0 0 1
193 1 -1.2 37.03939544104087 31.79201675750925 4.784882912770786 -1 -1 1
1158 2 2.4 35.664419225039694 32.73755779654772 5.0404841147757935 0 -1 1
1471 1 -1.2 4.630135757016207 35.391514058338025 4.298512092050503 0 0 0
2391 2 2.4 5.113936594852856 35.01641307074631 5.817890958448286 0 -1 0
590 1 -1.2 6.460492252324415 35.869133639798505 6.150496313030086 1 0 1
1817 1 -1.2 3.9934220417299766 35.31576696207761 6.996938810476285 1 -1 1
2399 1 -1.2 3.0438806590396004 37.56840232179151 6.431342224491287 0 -1 1
2352 2 2.4 4.507637590158236 35.751628131607454 2.6608071880746187 0 0 0
729 2 2.4 2.955696220458999 36.439162200421634 7.656912414449603 0 0 0
2319 2 2.4 8.053496359353677 35.928451681585194 6.53921602520632 0 0 0
1997 1 -1.2 8.895795192865746 36.662692152371676 5.353431306573 0 -1 1
2004 2 2.4 9.820294024144937 37.299971059154565 4.184238600386459 0 -1 0
2038 1 -1.2 11.322428445991164 37.721925876891284 4.723713587255499 0 -1 0
2110 1 -1.2 8.606607854573479 34.35202051795085 6.570608197075226 1 -1 -1
1146 2 2.4 12.297400578353198 33.77126619486298 5.60936658156805 0 0 0
205 1 -1.2 12.292762587717238 35.37647363680168 5.143466848408327 0 0 0
1977 2 2.4 12.457595958900548 36.96707487936674 5.61650179150693 0 0 1
1537 1 -1.2 10.250183827187477 36.15328814205927 3.0622146866970565 0 0 1
2923 1 -1.2 12.287715791128187 37.21038535574177 7.196747844807723 1 0 0
1808 1 -1.2 12.833155074664322 33.869083451667834 7.191445167738847 0 0 0
780 2 2.4 16.611130066593784 33.46222172161073 6.956313588531131 0 -1 0
2078 1 -1.2 15.883404609179127 34.01688252145671 3.803096783677178 0 0 0
1001 1 -1.2 13.934309277488863 37.502505522968065 5.092118841065574 1 -1 1
1545 2 2.4 17.196372920048326 34.899361420009036 4.2458969403514875 1 0 0
2018 1 -1.2 17.261521243907904 34.50763318462906 5.879935181642666 0 -1 0
2209 1 -1.2 17.129550119007824 36.54499564224871 4.1463856732394415 0 0 0
222 2 2.4 17.581726785758413 38.14317779576811 4.37801131907317 -1 0 0
2710 1 -1.2 14.892421679281023 38.07579687625008 2.724954951036862 1 0 0
1229 1 -1.2 20.923553675011494 38.428962315286626 3.849924588583098 1 0 0
784 1 -1.2 21.325359748641834 33.39600178370456 5.599338065221206 0 -1 0
1414 1 -1.2 18.50547387563467 34.391782832663864 3.3627770563951103 0 0 1
1925 1 -1.2 18.886834177849078 37.994755458177515 5.348310978167474 0 -1 1
2521 1 -1.2 21.49658658285472 37.53949710270775 6.321656443814665 -1 1 0
648 2 2.4 20.434114453778573 37.4867845777077 5.070896775826954 0 -1 0
2115 2 2.4 21.53970970941109 34.58620573178314 4.477235037131117 0 0 0
2825 1 -1.2 20.5014354014325 35.91585984249804 4.687230182029182 0 -1 0
2164 1 -1.2 21.045858699742205 34.0824592264951 3.00257051495548 0 -1 1
886 1 -1.2 23.019425410478433 35.22114084758428 4.473239367693924 1 -1 0
510 2 2.4 24.578482609911926 35.70953064423175 4.266698080255361 0 0 0
530 1 -1.2 25.64762201685749 35.774058015710295 5.453010662968714 -1 -1 1
746 1 -1.2 24.494513777436108 37.23471062007883 3.5802695795218966 0 0 1
2943 2 2.4 26.765132010639356 36.00934961141981 6.624607830660083 -1 0 0
1118 1 -1.2 26.514245163020664 37.56899165412736 7.0425424509461845 0 -1 1
2974 1 -1.2 25.291819616264526 34.760203541227796 3.0573850876905153 0 -1 1
1370 1 -1.2 28.260004824021067 35.62058302209521 5.990465055814036 0 0 0
2211 2 2.4 29.797103737937547 38.37287449228874 3.750737176772166 0 0 0