LAMMPS data file via write_data, version 17 Apr 2024, timestep = 47251450, units = real

3000 atoms
2 atom types

2.515257716716686 38.58474228324306 xlo xhi
2.5128097773245877 38.547190222665485 ylo yhi
2.5109738227865677 38.51902617716706 zlo zhi

Masses

1 15.9994
2 28.0855

Atoms # charge

1040 1 -1.2 6.378082440042768 6.2657781711486376 3.7916361690080214 1 0 -1
378 2 2.4 5.923130354180823 4.838394071464189 4.495862281492974 0 1 -1
196 1 -1.2 4.300078554269534 5.061402311258544 4.681158194124105 0 -1 1
920 1 -1.2 6.557386079262703 4.5095970903918285 5.95298466770498 2 -1 1
554 1 -1.2 6.337351140942174 3.5766488844166364 3.541409582110643 1 3 0
24 2 2.4 3.1743972158435425 5.060023976377204 5.879443647878233 0 0 -1
2684 1 -1.2 3.8236896481713085 5.9138864736191605 7.143611907608641 0 0 1
10 1 -1.2 3.0689875084099913 3.5246013506468303 6.395439780281475 -2 1 -1
414 2 2.4 7.5887685292096165 3.5568604212439094 6.909181104737595 2 1 -1
2559 2 2.4 7.573999969524043 2.7270391960515634 2.8694623801249572 0 -1 0
1270 1 -1.2 9.788363096480632 5.352168581965238 5.074934431995583 -3 1 0
600 2 2.4 9.64221503052871 5.036940265208704 3.4527427561780093 -2 0 0
1527 2 2.4 9.762205178196364 5.653436256733689 6.696236469094918 -1 -1 0
2986 1 -1.2 8.860132144773305 3.656537896710007 3.2029168290805035 0 -1 -3
1879 1 -1.2 8.793199171114312 7.013268713336116 6.831722623107171 -2 2 -2
26 1 -1.2 11.165975604434598 5.131929796754424 2.834860107842952 1 -2 0
133 1 -1.2 8.821807650600562 4.499726681075781 7.384701754898891 2 -1 1
1003 1 -1.2 12.514537331774179 3.2093559372653537 7.118387738985038 -1 1 -2
759 2 2.4 12.609262601592471 5.627439147256868 3.3003033156700887 -1 -1 1
1591 1 -1.2 12.622317830099417 7.214001194615806 2.9094869283550766 1 0 2
1640 1 -1.2 12.208930557185875 2.5940248071418095 4.690792383893909 -3 0 0
1103 1 -1.2 8.951312075563292 6.172530133083587 38.45663811574991 -1 2 -3
2020 1 -1.2 12.765415909270539 5.133067839252424 4.872904789537347 -1 0 0
729 2 2.4 13.069474036777711 3.6552571864219825 5.618331912633716 0 0 0
2353 1 -1.2 16.518243910371115 5.493630142552643 5.610988346823216 1 -1 -2
15 2 2.4 16.312372054617363 6.870504567399744 4.832663549724286 -2 2 1
2933 1 -1.2 15.678966481807088 6.671881935696021 3.3487324761306008 -1 1 -2
1608 2 2.4 16.273946550407178 3.945765003019863 6.051873855178204 1 3 3
1900 1 -1.2 14.718382026435677 3.5594505848479683 5.621981196244111 2 4 1
1367 1 -1.2 17.401313932795702 3.0002726567442233 5.361381038939605 -3 1 1
482 1 -1.2 16.56442719415892 3.7648465434739 7.63108491539388 -1 0 1
1859 1 -1.2 20.65681914535726 6.103947745784048 6.296517502155085 -2 3 0
2802 2 2.4 21.758186523241047 5.680392695107644 5.142612930586353 -2 -1 -2
1967 1 -1.2 21.056711981540605 5.814546332916469 3.6908523134644606 -1 -1 2
1969 1 -1.2 22.171441890603493 4.114951752247791 5.361004802013129 2 0 -2
2784 2 2.4 20.247284178701634 6.664621116913561 38.50827260345438 0 1 0
873 2 2.4 21.684718266859228 2.5593066858275084 5.5043677312835015 2 1 2
610 1 -1.2 23.13895521671486 6.550082607044569 5.2353478553327095 -1 0 1
1410 2 2.4 27.11667001300671 5.858985781712782 3.7362189957563876 1 -1 1
2651 1 -1.2 25.72009791477339 6.305541545634857 4.443307531277976 0 0 0
1366 1 -1.2 27.424812138756906 4.240530187259197 4.078804064571479 0 -1 -1
603 2 2.4 24.60130695832883 7.183566404160837 5.223461946610209 0 -1 1
1420 1 -1.2 25.03207703957241 7.389256530192283 6.785854438223149 1 0 -2
2324 1 -1.2 28.2639970393326 6.961761066249921 4.109717478233163 -2 0 1
1470 2 2.4 28.2889063497022 3.0330399801765164 3.3907946472450643 1 2 0
2591 1 -1.2 30.240387668796657 2.9166855388456825 6.23800991706476 -1 -1 1
11 1 -1.2 29.47038875075773 3.8836422779544666 2.740464263114649 1 1 -1
1823 1 -1.2 30.45118325234991 5.536919417490982 7.3914165885724215 -2 1 1
810 2 2.4 30.776888008942656 3.9407370533200092 7.385549829534701 -1 -2 0
1852 1 -1.2 32.37263837777962 3.6683364534806993 7.396614240881319 -1 0 0
636 2 2.4 29.504052760857473 7.704973819295168 3.3621394162003533 0 1 1
1918 1 -1.2 34.07897756564523 3.1107888758387126 3.066186062282518 -1 2 1
2251 1 -1.2 37.850451826119354 5.7288711667676875 5.329929903270987 1 -1 2
852 2 2.4 36.557696923097325 5.941243237992449 4.325861768892263 -2 -1 1
842 1 -1.2 36.133026281270716 4.467855227320208 3.811614370962429 0 -1 0
902 1 -1.2 35.19263926831981 6.565481739225682 5.061328420680231 1 -3 0
2079 2 2.4 35.195518525391805 3.24355743923409 4.250458076212867 -1 1 1
1666 1 -1.2 34.49232694239991 3.552618129125789 5.694832529172077 -1 -1 1
2432 1 -1.2 36.953617537729 6.923142822953051 3.081821226730163 0 1 1
1455 2 2.4 33.75874541592768 2.925677318772621 7.015884931827601 0 -2 -1
23 1 -1.2 34.12223948478946 7.379221070627837 7.442950299197797 1 0 -1
561 2 2.4 5.506571255796363 7.609175304718376 3.377880876607546 -1 1 -1
671 1 -1.2 4.314274799393161 8.109298220866194 4.374662866419051 2 0 2
158 1 -1.2 4.607889420414024 10.553540623960837 4.936580660522296 0 0 2
2997 2 2.4 5.57555706047402 11.918841554113742 5.019854811479046 1 2 0
1206 2 2.4 3.408777193102219 9.4951911392419 4.523837004849604 -1 -1 0
2803 1 -1.2 6.923020705130011 11.742671426090041 5.975589799448016 2 -1 2
2167 1 -1.2 6.139530445509889 12.285993221864144 3.517528703096217 1 0 1
2171 1 -1.2 6.617591339417942 8.790558216127982 3.13682252619964 0 2 1
2209 1 -1.2 2.8721062215389397 10.003879980564744 3.043213263292451 2 -2 1
2174 1 -1.2 7.716238413171284 9.49987363749753 7.182584601633109 -1 -1 2
1095 2 2.4 8.0411524477827 11.064048859546856 7.061344082799666 0 -1 1
364 1 -1.2 9.594641532022706 11.311886405440466 6.531041856843192 1 1 -1
258 2 2.4 10.74991775953601 12.38371527239554 6.070009646226157 2 1 1
1126 1 -1.2 12.282136803952506 11.74410462012076 5.865703956131002 -2 0 -2
1028 1 -1.2 15.298406035358392 7.840646081467163 5.699247854546313 2 0 0
1579 1 -1.2 17.649794399325394 7.787018428274097 4.500791224605084 -2 0 0
2892 2 2.4 13.890682882448575 11.862046872398299 5.61658961201495 1 -1 0
53 1 -1.2 14.711618483189342 10.48519903142125 6.042665464076876 -1 1 1
1851 2 2.4 15.174792191247244 9.050217173985665 6.805707021903826 -1 2 0
1598 1 -1.2 14.244925912955336 12.37696522175135 4.084959231683586 -2 1 0
2474 1 -1.2 17.79157980595769 9.785824999116993 2.608716003205856 0 1 -1
66 2 2.4 18.578669508447376 8.969053210146551 3.7831920284552574 2 1 -2
895 1 -1.2 19.823067801019622 8.132864510701735 3.1024938533724127 0 2 0
569 1 -1.2 18.880199393261126 9.913257714040252 5.099900175762192 1 2 0
966 2 2.4 19.51082956917067 10.575675029512356 6.497145892913997 2 -1 0
176 1 -1.2 21.080465496322617 10.678277023033367 6.200877058543595 1 2 0
525 2 2.4 22.50169305223088 11.432791855576227 5.933246710481502 0 1 -2
271 1 -1.2 18.956227386348083 12.095377811905202 6.688179069889953 -1 -1 -1
1919 1 -1.2 20.96632181770116 12.419041951110794 3.3995054315951783 -1 0 0
1832 1 -1.2 23.275916249333733 10.917556928183497 4.565038329942403 2 2 -3
1949 1 -1.2 23.420818809827683 11.18151018876416 7.251830286834059 0 1 1
763 1 -1.2 24.660556552756667 8.753885127041539 4.573730746855932 1 -1 1
1647 2 2.4 24.53846260828076 10.16774946562588 3.805456404969076 1 -1 -1
598 1 -1.2 25.82125748149432 11.199326361160075 4.042327787225943 1 1 1
681 2 2.4 27.10764817311159 12.118803052738484 4.051707411792564 1 0 -1
1699 1 -1.2 27.705821615410805 12.109061066476215 5.549327856364125 -1 -1 3
1781 1 -1.2 28.15546637015361 11.433680816907932 2.9422823218611973 -1 1 0
165 2 2.4 28.495889691881846 12.209426232296567 6.951441239032204 -1 1 0
2945 1 -1.2 30.675176188846354 8.183394311443895 4.434817643993668 -1 1 0
2421 2 2.4 31.790581404628522 9.20983875273701 5.096435357595443 0 -1 0
848 1 -1.2 31.3240392619793 9.652224032125211 6.591908958202369 0 -1 2
1096 1 -1.2 31.910079966677927 10.442058413575307 4.10012140126644 1 1 4
439 1 -1.2 32.81507040100684 12.652217647040118 2.9285158986872837 0 -1 2
575 1 -1.2 33.192462603625316 8.460357453516249 5.30737224607317 -1 0 -1
507 2 2.4 32.156718703438116 11.123096325550755 2.6680651637821695 2 0 1
1208 1 -1.2 29.1165124751254 9.020367627745621 38.50106701714657 -1 0 -2
1792 1 -1.2 29.082188164870068 10.74770981152387 7.45146732501435 -1 -2 1
1800 2 2.4 34.51120533204245 7.784383221148905 5.925851459200263 -1 -1 1
761 1 -1.2 38.30379698955028 9.589811372827409 5.686385840240899 1 0 2
1962 2 2.4 36.896652230885365 10.024138551283324 6.324478961206852 0 1 0
226 1 -1.2 36.438683888182254 11.491652985957526 5.744703254561788 -1 0 1
1064 1 -1.2 35.748875065720455 8.864263327629862 6.031420230916661 2 0 -2
463 1 -1.2 34.65992129647485 12.67487175021204 7.56362740025377 1 1 2
1058 1 -1.2 4.554906232445174 13.16019070165855 5.460005752652059 0 0 0
2703 2 2.4 4.156886618058272 14.749184754262012 5.227558215381523 1 -2 -1
125 1 -1.2 5.596119277885734 15.585327843424853 5.352368223295644 2 0 1
1378 1 -1.2 3.520953148114347 14.792982107065619 3.7013912312044805 -1 0 0
2496 2 2.4 7.048371921379284 16.180779227593398 5.954604052384388 2 -1 0
1816 1 -1.2 3.002112564315798 15.256737032961148 6.248836898486985 1 1 1
2575 1 -1.2 6.637281110715232 16.931261223820258 7.424720782442694 1 1 -2
2024 1 -1.2 7.567205390706947 17.234410006139875 4.783943895759112 0 1 0
983 1 -1.2 10.308856544871016 13.122221449231597 4.701239919467094 -2 1 1
1829 1 -1.2 8.302694386670026 15.105567578965545 6.239328040706155 3 -1 0
151 1 -1.2 10.86704219037111 16.050487528878932 6.013394483235582 3 -1 1
921 2 2.4 9.81316619587496 15.134655079636362 6.842889350403201 3 1 2
1773 2 2.4 12.158884499752212 17.00002921977258 5.751748184176654 3 1 1
2373 2 2.4 10.054403576038457 13.548252792891452 3.105015538293106 -1 0 2
295 1 -1.2 10.52774490742682 13.623527502619677 7.1801833968889275 0 3 -1
1552 1 -1.2 8.45896482165965 13.320853902802229 2.7229682848339163 1 0 -1
2515 1 -1.2 10.40546016439804 15.12525010784078 2.8577932118724507 2 -1 0
2389 1 -1.2 12.94662612679123 16.701529263894166 4.382458082374001 -1 -2 0
1219 1 -1.2 14.36303275527213 12.95747385416868 6.75796859634185 -1 1 2
233 1 -1.2 13.305627955166788 16.766888310841445 6.93251011234235 -2 1 -2
57 2 2.4 14.369730542999262 16.75864775415241 3.481279313889438 1 -1 1
1469 1 -1.2 15.33775268483288 15.60891623615986 4.085493562673172 0 0 2
960 2 2.4 16.75599531586642 14.805545797956226 4.241540593107233 1 -1 1
2081 1 -1.2 17.07810808273188 13.791346152793357 5.477664856824813 -3 0 2
272 1 -1.2 15.452067125513757 15.225053120413241 7.229394431990503 -1 -1 1
341 1 -1.2 17.0691907698576 14.114182372807653 2.738907884096404 1 0 1
2091 2 2.4 14.894881919163295 16.734892625594604 7.371599348191744 -1 1 0
1601 1 -1.2 17.83826790023673 16.093794090205257 4.274147654975808 0 0 -1
661 1 -1.2 15.667651573979397 17.77429341379453 6.406700126160402 1 -2 2
1312 1 -1.2 22.108890304977784 13.035034579151944 5.618016603220594 -2 2 -1
2631 2 2.4 18.49377094688827 13.602315982501143 6.279098310105786 1 2 -1
2381 1 -1.2 19.58791510571214 13.886573557195316 5.068069929154326 -1 -1 2
2541 2 2.4 21.067158061392586 13.688796421344467 4.48030129329869 0 -1 0
1402 1 -1.2 21.684508094542167 15.044726319900569 3.7227951857121235 -3 2 -1
1404 2 2.4 18.60881153999573 17.533909592416556 4.032289212088314 -2 0 1
1759 1 -1.2 20.16111449599623 17.12504526980447 7.476848611557232 0 -2 1
1510 1 -1.2 18.738627125657143 14.775138660107093 7.409003946806171 3 2 0
398 1 -1.2 19.968134273682686 17.66610228878261 4.969218381654343 -2 -2 1
316 1 -1.2 23.060785291693612 17.207903475815456 2.806880665899695 -2 0 2
780 2 2.4 23.06670810520635 15.617498000705103 3.027895944502524 1 0 2
308 1 -1.2 26.75487932042859 13.699494154977563 3.7177672634434735 2 0 0
2412 2 2.4 25.9402680763637 15.09854301711355 3.7631143700207 0 0 0
2026 1 -1.2 26.393637967956135 16.145498322671664 4.959570109330928 0 0 0
753 2 2.4 26.356759166179714 16.693271339948915 6.4898245927062375 -1 1 -2
1682 1 -1.2 24.29268131827698 14.934539825391528 3.892943489600442 -1 1 2
481 1 -1.2 24.816111770664094 17.023777194738013 6.990995671261509 1 2 1
2108 1 -1.2 26.996096067112884 15.372537279985655 7.375249691367085 1 -2 0
337 1 -1.2 27.335750465462183 17.93084474896861 7.023492730790467 -1 0 2
2023 1 -1.2 29.794937643026117 13.253633827235207 6.752079128521441 0 -1 2
695 1 -1.2 31.24090860810784 15.487424427384449 5.873561396551301 0 2 -1
270 2 2.4 32.67361096225341 16.02273265811663 5.240622006784722 0 0 2
987 2 2.4 30.87555082502567 14.446609626421512 7.08843238901405 -1 1 -1
1901 1 -1.2 32.541855375410464 17.66987724475804 4.992670121920532 -1 0 1
1060 1 -1.2 33.17815317079053 15.15403099927786 3.9399715990111384 -1 2 0
388 1 -1.2 32.35417721907718 13.844259741849086 7.438112090980342 -1 2 -2
1149 2 2.4 35.600682154717546 12.809045099262994 6.178765435906225 0 0 -1
1685 1 -1.2 34.590224982007996 13.240407579374773 4.960844497589882 0 1 2
1056 2 2.4 33.8728791731309 13.72969637154942 3.541921230125336 -1 1 0
1202 1 -1.2 34.03207256651386 15.918284236097936 6.285584463311778 -1 1 1
2413 1 -1.2 36.79960335663348 13.906217099070103 6.554551744717828 -2 -1 0
1023 2 2.4 35.32144801925136 16.946963046000008 6.449688761298107 -1 0 0
2831 1 -1.2 36.651723060108665 16.368665911033226 7.194667898025035 0 0 -1
1005 2 2.4 37.77632492354334 15.094185664327405 7.21321067745294 -3 0 0
1702 1 -1.2 35.85595842930296 17.388707001221032 4.943666273822338 -1 -2 0
340 1 -1.2 35.91803000596214 16.50001786849252 38.51372679775772 -2 2 0
2757 2 2.4 36.08704119091651 17.83876996672712 3.3644412037951463 1 0 0
2177 1 -1.2 3.3036153026171675 21.335741425937748 6.924855512551728 2 -1 -1
2478 2 2.4 4.145205007387306 22.74900760129287 7.044771631600555 0 -1 0
1952 1 -1.2 4.119980528824078 19.424261173464004 2.965560582362283 1 -2 3
296 1 -1.2 5.772702875993822 22.558867375664946 7.069258104480809 3 1 -1
1427 1 -1.2 6.797386947205475 18.897237855703793 2.7331670424991925 2 -1 -1
2276 1 -1.2 2.6170558171800358 19.460043728094575 5.307327340529412 0 -3 1
372 2 2.4 2.6257262732054762 19.49959826728762 3.690737419906979 1 -2 0
2238 2 2.4 7.160621621144821 22.989221556763063 6.367434950294788 -1 1 0
1662 2 2.4 2.5835838025427487 19.839296723550504 6.935628619958855 1 -1 1
2039 1 -1.2 7.92515426805084 21.72179918079571 5.683354601153417 -1 1 0
1320 2 2.4 8.02450195441714 18.32991646670503 3.6535575200473547 1 0 1
2666 1 -1.2 11.729978766282128 18.577186145672236 5.862955249400018 2 2 1
1069 1 -1.2 8.795783703422831 19.553217923922553 4.4389672859589355 0 0 -1
399 2 2.4 9.018735968810342 20.5187731534107 5.695386648114657 1 2 0
1982 1 -1.2 10.570929937368817 20.9161206016263 5.494328990412628 2 -1 -2
2085 2 2.4 12.009767941007638 20.152444064894564 5.539740821826746 0 2 -1
44 1 -1.2 8.768512960647831 19.775221391215023 7.15185825732378 0 0 0
697 1 -1.2 12.90554521012336 20.271866125499763 4.116653543956754 -3 1 0
532 1 -1.2 14.99939851926898 18.226718246360804 3.8965816262457684 0 2 1
767 1 -1.2 13.093240322189596 20.731015999141803 6.653239462140561 0 2 0
2103 2 2.4 15.951651189483341 18.882953283186882 5.127326840988092 -1 1 0
1857 2 2.4 14.687274966179665 21.228865733623614 6.831945471195516 1 2 -1
2696 1 -1.2 15.564695738053167 20.329207300182002 5.723714928961624 -1 -2 -2
2065 1 -1.2 14.590538177671595 22.808380920757653 6.438471070782711 1 0 1
607 1 -1.2 17.457290848377163 18.619786307642933 4.576432895960725 2 -1 0
2880 2 2.4 13.635357382869344 20.65719079379067 2.6947852814344113 0 1 -1
878 1 -1.2 22.380968434528846 18.207075153765302 6.335521787161468 0 0 0
1164 2 2.4 20.74157558938837 18.202794757995875 6.3366796571306345 1 2 0
2996 1 -1.2 18.528460442253593 21.2276541375614 4.915643978062734 -2 1 1
492 2 2.4 18.652565765906555 21.84670803699822 3.359923254044233 0 0 0
2240 1 -1.2 20.169833413852896 19.72033445113894 6.54403006541368 -1 -1 0
870 2 2.4 19.127177717151234 21.051483457365205 6.48463195209939 -1 0 2
1414 1 -1.2 19.949389757828712 22.379671886192995 6.806824975491643 1 -1 0
496 1 -1.2 20.235104749037195 21.73353184412486 2.9076937050796645 3 -1 -2
1984 1 -1.2 22.825078580579913 21.859423092586052 3.4730371588315965 2 -1 0
1629 2 2.4 21.75122462844638 21.220052037387422 38.45246405196006 0 -1 1
1819 1 -1.2 26.77336990147368 20.748600725863835 5.592246467366347 1 -1 2
1695 2 2.4 27.350895898371864 20.93805631625315 4.095237648605866 0 1 1
2571 2 2.4 25.490943240583444 21.071842218369518 6.606831305427763 1 0 2
2387 1 -1.2 24.409904712704098 21.878516970308276 5.6144781754432085 1 -3 2
2606 1 -1.2 24.70705340484183 19.682337437909034 7.049657560049134 1 0 -2
2921 1 -1.2 26.804384810099013 19.657297727412367 3.2362069101271747 1 1 1
443 1 -1.2 26.658028480970145 22.29212192431336 3.5186868052442133 0 0 -2
531 2 2.4 23.811413741769833 18.334272184487173 7.224752814906804 0 1 2
1947 2 2.4 23.542279437200033 22.83261838481755 4.551353641960634 0 -3 -1
2740 1 -1.2 28.893205354554613 21.14464326509557 3.9291647367913702 1 -1 2
360 2 2.4 32.1736602946594 19.225328169262976 5.23320982665018 0 1 1
1937 1 -1.2 31.078329123954095 19.644009071126227 4.087123205916084 0 1 0
1985 1 -1.2 31.541942613092587 19.538272026089285 6.737283515626822 -1 2 1
1368 2 2.4 30.2007948855735 20.541203753088695 3.0944500018870102 -1 2 0
1577 1 -1.2 33.44693111099561 20.2005755278044 5.118342116403843 -2 2 -1
1475 1 -1.2 33.669757980882196 22.801527367872048 5.42293689016069 0 1 1
2225 1 -1.2 37.63654134019663 18.329026961687358 3.235326388330762 -2 1 2
1607 1 -1.2 37.97773618171384 20.93220887307249 3.2425273062693103 -2 1 1
2746 1 -1.2 35.77785047432816 21.519526050746574 4.665470270652092 -1 1 -1
1671 2 2.4 34.46014978518174 21.409172878509597 5.552436414858192 -2 2 1
2652 2 2.4 36.94584500340278 22.145674035059617 3.6730228362783874 -2 2 -1
2938 1 -1.2 34.844047922740614 21.034399049582643 7.135114592228894 -1 1 0
1837 1 -1.2 34.891778531091134 18.36500946205453 7.260838571974822 -1 -2 -3
1309 1 -1.2 37.11791664273241 19.855740014667234 7.462440278192237 -2 -1 -1
884 1 -1.2 35.12645198808903 19.030400248573432 2.7815306891769 -2 0 2
418 1 -1.2 3.8323064007167726 23.7823362358348 5.824616399027665 -1 1 0
1039 1 -1.2 3.4905757835721936 24.68398094651576 3.311230118941247 1 -1 -2
980 1 -1.2 6.799274668378451 24.031483408700623 5.2203944190115665 0 1 1
693 2 2.4 7.306190342543764 24.816159721237913 3.9154220755762505 -1 1 0
1877 1 -1.2 5.978830191146271 25.298230047629342 2.9666296432552257 0 1 -3
786 2 2.4 2.7903549801534124 24.416378986619748 4.771280392724884 2 0 2
1964 1 -1.2 8.18862209930429 23.48565055561217 7.493523682089326 -1 1 -1
1184 1 -1.2 8.360131068586817 25.928174638660135 4.463145062494053 -1 -3 2
1802 1 -1.2 10.416239272991692 26.112453505788743 6.2497685789406185 2 1 3
2115 2 2.4 9.334219721861858 26.978005723398326 5.293741530769345 -1 1 -1
1533 2 2.4 11.6602628822027 25.87184974449865 7.3095638027937415 1 0 -2
274 1 -1.2 8.27728061315956 23.91595016338175 2.9091385220806645 0 0 1
743 1 -1.2 8.278424946932546 27.90839804302757 6.115974243821228 0 1 -1
2469 2 2.4 12.599513710299874 23.544685601315678 2.8786695406100105 -1 -1 0
2092 1 -1.2 10.9765369984264 23.499918418165194 2.7660876470237636 0 1 -1
2048 1 -1.2 12.454096462522012 27.306689323488904 7.385085736659659 3 2 0
770 1 -1.2 12.764885079166726 24.752295539992396 6.750446651683535 2 0 3
2006 1 -1.2 10.281939756359195 28.080122323847508 4.486750182900657 -2 0 0
2840 1 -1.2 13.25832826509899 23.781824899625843 4.344932444867281 -2 0 1
2067 2 2.4 13.947384625101046 24.12960978144328 5.766391677175372 1 1 -1
255 2 2.4 16.069865625838524 26.444781409934563 6.213964354382288 3 0 1
377 1 -1.2 15.167952941703271 25.19703869190019 5.682412289514366 -2 2 1
188 1 -1.2 16.617402753247625 27.323857407942114 4.941756505233375 1 1 -1
348 2 2.4 17.151004779683486 27.471605341795012 3.4027771266457965 2 -1 0
1732 1 -1.2 17.245602276809343 25.836365667304342 7.2096934515284685 1 0 1
427 1 -1.2 15.087132180481307 27.312971480795195 7.2007097487687295 1 -1 0
903 2 2.4 13.803991804842287 28.222440150737476 7.623993020762167 -2 -3 0
1252 1 -1.2 18.165997894426226 26.23144143191066 3.105057259965267 -2 -1 -2
1307 1 -1.2 18.22666494552984 23.429310986943477 3.1829379929503845 -2 1 0
821 1 -1.2 22.41033281191186 23.87286772763127 5.077433301610065 -1 2 1
1892 1 -1.2 20.28554965163768 24.888414158993644 3.819509599382836 3 0 1
2988 2 2.4 21.334666974302582 25.082214153797334 5.068834173588362 -2 0 -1
631 1 -1.2 20.631093422346314 24.905109997313307 6.504099494185548 0 0 0
2170 1 -1.2 22.074349533979966 26.488187556611194 4.642597306242997 1 0 1
2289 2 2.4 18.99132146461559 24.866671188702156 2.8210961448541783 1 0 -1
804 2 2.4 23.196888950427976 27.269786552071338 3.757511362014735 0 0 0
1885 1 -1.2 24.704584022193142 23.83368586444748 3.9369866670005185 2 1 2
637 1 -1.2 26.782219406802753 23.828712363235283 5.639931951576429 1 -1 -1
1728 2 2.4 26.310893081456236 23.824153899394414 4.031093964333245 0 -1 2
2774 1 -1.2 27.186075609134114 24.769049365409256 3.073158759703431 0 -3 0
857 1 -1.2 24.572390242617903 27.431247096579632 4.645071530766116 0 -1 1
571 1 -1.2 25.97876246268333 27.289633191567116 7.10252480759173 -2 1 -2
2337 2 2.4 27.124084396864873 23.52587547416826 7.229732470938441 0 -2 0
2664 2 2.4 24.793960922718536 28.01651490750274 6.181468475055032 1 1 0
194 1 -1.2 23.290516704487043 28.08934624520501 6.90563387191787 0 0 1
2407 1 -1.2 28.74684017045004 23.252077052843486 7.199768556259053 -1 0 2
563 1 -1.2 31.382595034803998 23.547155390842637 6.5166289077411355 -1 -1 2
1284 2 2.4 30.99491209528669 25.90645566836599 4.186022419384373 0 1 -2
1553 1 -1.2 30.29422762487537 26.111186842055876 5.664640015039259 0 1 -1
493 1 -1.2 32.12605070277415 24.719938079589642 4.362966909907573 0 -1 -1
1721 1 -1.2 31.841203548314663 27.243208475696502 3.8838443627547443 0 0 0
2520 2 2.4 32.664578821345245 24.050920931058155 5.716356461456106 0 0 -2
651 2 2.4 30.14333071116435 27.184676375289953 6.959278971888995 0 -3 2
2756 1 -1.2 29.923455600382546 25.429558261069904 3.043598528890523 -2 -1 3
17 1 -1.2 28.676904643491085 26.844901788498138 7.639432326543419 -1 2 0
61 1 -1.2 33.45774000034024 25.209586508341474 6.570412087798183 -1 2 0
524 1 -1.2 37.69966871976541 23.279173238703336 4.559638180185462 0 -1 -1
2953 1 -1.2 38.235854979106975 25.809480573743016 5.353412049612739 -1 0 1
1182 2 2.4 37.20439464666248 26.98925612326715 5.785604039985379 -2 -1 -2
517 1 -1.2 35.7651348193329 26.465432298428652 6.344438291011392 0 -1 1
626 1 -1.2 36.85339556078003 27.714881476803985 4.268193348006715 0 1 1
2160 2 2.4 35.69200047978197 26.958224938427378 3.0925999763894483 0 1 1
2714 1 -1.2 37.89779762872726 27.841988517391883 7.003334468900047 0 -1 0
1105 1 -1.2 35.28886296181507 25.37447160231689 3.031077321018881 -2 -2 2
2146 1 -1.2 34.35401566042846 27.815244558714454 3.40029870107201 -2 1 1
1116 2 2.4 34.641804385749055 26.041104824055612 7.417450088609187 1 1 3
2242 1 -1.2 3.3502251595940686 28.819321565663994 3.4575753794468373 1 1 2
1646 1 -1.2 4.6691536519750585 29.79704081849905 5.635147830046741 -1 -1 0
2645 1 -1.2 4.621630852535599 31.314636935002355 3.3685368329928513 0 -2 0
2902 1 -1.2 6.091560460308546 29.132221097541212 3.4520826683345147 -1 -1 -1
993 2 2.4 4.679493948621654 29.73732177903499 3.955192190686639 1 1 0
1008 2 2.4 5.582156450776094 32.69954083520638 3.383858285557245 2 0 1
2963 1 -1.2 7.10039774862946 32.04817407495345 3.782662521946248 0 -2 -1
273 2 2.4 4.799955718264806 29.993090393689187 7.261358387667431 0 -1 1
2210 1 -1.2 7.927141009792514 30.456862078368165 5.879587146905606 0 -1 0
93 2 2.4 7.837513009834927 29.264790728130084 7.019924988561923 1 0 0
2959 1 -1.2 9.365782812329892 30.392107770835498 3.618710784530679 -1 -1 3
2670 2 2.4 8.406793069631387 31.39419577300587 4.525109490303404 0 0 -2
586 1 -1.2 11.996870813015729 32.3641346673691 6.185470494664941 -1 1 1
115 1 -1.2 9.397507512710389 32.57282878826563 5.111444152396897 0 1 1
828 2 2.4 10.539661896643821 29.223221643074847 3.381501486147481 1 -1 0
1177 1 -1.2 12.090136902411281 29.855572359937323 3.404366489634161 2 1 0
1590 2 2.4 10.699132475202305 33.25765974072324 5.796323269345724 -1 2 2
2679 2 2.4 13.49037605646249 32.91831056963663 6.5994080893757445 0 -1 0
1178 1 -1.2 14.608870340622955 31.909908875664097 5.955072062396875 2 0 -1
166 1 -1.2 14.69754550204424 29.815894071559477 4.183971892406758 0 -3 1
1764 2 2.4 14.975683283676428 30.323207655896645 5.735520364110505 0 1 -1
361 1 -1.2 16.46531321541479 30.129633749020552 6.372795558221783 -1 -1 1
2917 1 -1.2 13.87126475253365 29.528511890726197 6.626206981996031 -2 1 1
1854 2 2.4 17.760218638634026 32.85129378419971 3.2190886637412515 -1 -1 0
624 2 2.4 13.6535162193389 30.00639310325334 2.939807028021325 2 0 3
1796 1 -1.2 16.148094340363002 32.98051189260818 2.882335350699062 3 0 -1
1118 1 -1.2 17.991988368221435 28.910925967737793 3.1271751730903103 2 1 1
958 1 -1.2 17.981614319576 32.902838335941425 4.821788107021797 -1 -1 1
150 2 2.4 17.313394648536633 30.494972259162015 7.6933058314870735 0 0 1
1841 1 -1.2 18.3707305333228 31.499733870666255 2.5731197839051068 0 -2 1
2573 1 -1.2 18.33623846536464 31.72449538754316 7.230155611028473 0 2 -1
2610 2 2.4 21.932851967901463 31.83109646897051 5.505930136104553 -1 -1 -2
1756 1 -1.2 22.238767207418597 31.402623180576033 3.928829842883075 -2 0 0
2888 1 -1.2 22.02705019309477 30.423507551013582 6.383450409824651 2 -1 0
2045 1 -1.2 20.419823537126053 32.61207216667236 5.733537663351557 -2 1 -1
1575 2 2.4 18.831867726957746 32.92177258143599 6.249409963524604 -2 -1 1
2388 2 2.4 22.052756718221513 30.14304075573714 2.8767722166707506 -4 1 0
1067 1 -1.2 22.72021390124977 28.789411625547185 3.4131013873147262 1 -1 -2
677 1 -1.2 20.454397691169618 29.860125212008697 2.913354553356874 1 -2 0
2556 2 2.4 22.1162107100682 29.143084322745892 7.4641970438729786 -2 0 -2
386 1 -1.2 23.115379964144577 32.88434047413179 5.857235547511623 -2 2 1
1033 1 -1.2 25.282036276964305 29.577191333900583 6.177325059280439 0 0 1
474 2 2.4 26.581099729067418 30.411992162485046 6.665684768640823 0 0 1
644 1 -1.2 26.527386644674486 32.006480270779136 3.8487984965394277 1 2 1
896 1 -1.2 26.644684039806847 32.05272871815562 6.46452408175366 1 0 1
1319 1 -1.2 27.830500833105564 29.78819502398774 5.740698486035592 0 0 0
2877 2 2.4 26.776704537231492 33.00109133180169 5.098948474033182 0 -3 2
2312 1 -1.2 27.002565541662587 29.51614227318488 2.802837770760627 -5 -2 1
2568 2 2.4 32.859249338994175 28.488634006468295 3.6121029069461397 -1 -1 2
1801 1 -1.2 30.055960191491277 28.673874569689605 6.261882946394131 1 3 1
1711 1 -1.2 29.286510140536727 28.840412394942764 3.672413003632366 -1 0 -1
2481 2 2.4 29.332785100243555 29.631434318742155 5.144392173430861 0 0 1
2426 1 -1.2 29.838494524096443 31.196758141952376 5.02691924180208 0 -1 1
2688 2 2.4 29.82637776713206 32.80316909595732 5.476746282040311 1 1 0
1750 1 -1.2 32.928045558862095 29.60877160504635 4.806263424095841 -3 -1 0
2641 1 -1.2 32.885158124336755 29.582251860296566 7.36608471118226 -1 1 0
997 1 -1.2 33.24935548888016 32.00273339623413 6.360126403611391 0 1 -1
2611 1 -1.2 32.267629051292 31.83766246143758 2.648386700309064 1 -3 0
174 2 2.4 32.06196947861244 33.3574358842761 3.3380967315846277 -1 1 2
2047 1 -1.2 30.004096635869548 32.99060803623171 7.070789726890636 -3 0 1
1681 1 -1.2 31.124870016015098 33.34115136474581 4.629719549198697 -3 1 -1
2247 2 2.4 33.54389122608293 30.393923122760544 6.115357350851339 1 1 1
2820 2 2.4 37.83090264146736 29.031268647147883 3.7364596639656082 0 1 -2
1154 1 -1.2 37.642838272021464 30.03636318537392 5.03438720977756 -1 -1 -2
812 1 -1.2 35.2091587264526 30.355194586570423 5.926312964054589 0 0 0
1026 2 2.4 36.48925012155257 31.16748965919329 5.38125232173277 -1 1 -1
982 1 -1.2 36.93146202957337 32.2980263522828 6.44990408753125 -2 -2 0
2851 1 -1.2 36.092919386921 31.671881520355058 3.8782049398854612 0 0 1
278 1 -1.2 36.966438124349125 29.788248111707748 2.5450845838082383 1 -2 1
2821 1 -1.2 5.254423223495387 33.72476782072823 4.700602879807563 2 2 0
2298 2 2.4 5.333530538231161 34.81215949270944 5.970106938540473 1 0 -1
422 1 -1.2 6.353862056638455 36.05905740547719 5.622336904298954 0 0 0
1708 1 -1.2 3.853832503917217 35.367217072387334 6.417440600043731 2 0 3
535 1 -1.2 5.919657770843208 34.04481898238942 7.304414179438114 0 -3 0
1423 1 -1.2 7.765267926326139 37.28112442338727 3.6040885483251675 1 -4 -1
2226 2 2.4 7.68365946142915 36.895611286447405 5.188538396693444 0 0 -1
1433 1 -1.2 7.824220307788313 38.351544509943565 5.956951631261136 0 -2 1
2669 1 -1.2 11.362933465893402 34.22028983155073 4.649128330328109 0 0 0
2563 1 -1.2 10.317317203784164 34.25278975414523 7.050590029542848 1 -1 1
1262 1 -1.2 8.930518800708725 36.00270750379181 5.7063229689407615 2 0 -1
1644 2 2.4 12.112220073479655 34.56765375986451 3.246635472855796 1 -3 2
1690 1 -1.2 12.198642603803426 36.249495362144984 3.170474765675012 2 0 1
2293 1 -1.2 11.011403231608526 36.83807805976748 7.091175395323651 -1 -4 1
864 2 2.4 9.741031559865734 35.77187156714855 7.074543547243926 0 1 0
2256 2 2.4 12.4145226823022 37.92888739215789 3.2127735179849832 1 -1 0
195 2 2.4 12.37066422635487 37.63989118825258 7.529664883793856 -1 -2 0
589 1 -1.2 13.821589324076612 34.40872222708364 5.991117780459318 1 -1 -1
2486 1 -1.2 13.608907863207852 36.9571710791799 6.674578100942208 2 -3 0
1280 1 -1.2 16.095567564510457 35.61107238303117 6.578500642751259 -1 -1 2
451 1 -1.2 14.928608390344428 36.345320947817044 4.397375557618207 0 -1 0
1815 2 2.4 14.614912451776863 35.873032135510286 5.920186017552801 -2 -1 1
2019 2 2.4 15.13500349348676 36.999634286700356 2.881967245727366 0 0 1
2031 2 2.4 17.476043461435104 35.66891715285452 7.415797368229409 -1 -1 -2
2269 1 -1.2 13.633921392540726 34.007300054101094 2.9598678138770724 2 1 3
2626 1 -1.2 14.004246149320805 38.219800588674886 2.909895137957722 1 -1 2
1979 1 -1.2 16.627433784312746 37.530457448969884 2.6190209478229116 -1 0 -1
1864 1 -1.2 20.05516434804871 2.5194523665571893 5.592011836318658 1 0 1