LAMMPS data file via write_data, version 17 Apr 2024, timestep = 47251537, units = real

3000 atoms
2 atom types

2.3812130503636553 38.6487869495911 xlo xhi
2.380052332330372 38.629947667587075 ylo yhi
2.3806326913495184 38.63936730860202 zlo zhi

Masses

1 15.9994
2 28.0855

Atoms # charge

1210 1 -1.2 4.7472290718024635 6.380596639833163 4.833668226108312 0 1 -2
2364 2 2.4 3.4438075370973746 6.517163421421915 3.802312428031914 2 1 0
2244 2 2.4 6.045545849642118 6.443425566083551 5.893246160768419 0 1 0
184 1 -1.2 6.675434826920769 4.918091563756498 6.143286783436695 1 0 -1
159 2 2.4 6.172450104161593 3.3535127542360694 6.018305870609725 -1 0 1
1945 1 -1.2 4.649450086740662 3.3887199395239875 6.664287429526013 0 1 1
1453 1 -1.2 5.4951265462604635 6.978017974582418 7.391306080639585 0 1 3
2782 1 -1.2 6.387944411096239 2.727542052785331 4.484109840515579 1 0 -2
1081 1 -1.2 7.037260880399898 7.398647444727542 5.091329353981507 1 0 0
751 1 -1.2 6.956458560530164 2.4179625984039035 7.170982400361383 1 2 -1
960 2 2.4 11.633312053467213 6.604711210154307 6.339043280666864 1 1 0
1990 1 -1.2 12.153581798115695 5.331678093569472 5.462377184020192 0 -1 0
1726 1 -1.2 10.266100278380769 6.222142669455024 7.145206289617378 2 0 -2
1003 1 -1.2 12.947393651185813 7.039957548465393 7.277978028884885 -2 -1 0
2840 1 -1.2 13.413489063293108 3.1055953465016883 4.5041036407686175 0 -1 -1
731 1 -1.2 13.045076858812601 5.517847134921183 2.9866216383014352 0 0 1
2622 2 2.4 13.348164928730903 4.754492793175952 4.442414265133556 0 1 0
2459 1 -1.2 14.799839114346904 5.262432055320663 5.0375549925573555 -1 2 0
195 2 2.4 16.27876660778241 5.667724701724013 4.383571263798931 -1 0 2
2699 1 -1.2 16.26531261605303 4.721003185189554 3.024860533697439 0 1 2
97 1 -1.2 16.18921713233479 7.229938747489827 3.9751567720619896 -1 2 2
1099 1 -1.2 17.644201781871097 5.435282642029976 5.205191673180014 0 -1 1
1089 2 2.4 18.430356299689343 4.699929500025855 6.445543224687052 0 2 -2
1160 1 -1.2 22.13013977254617 6.032571319691463 6.325152611335117 0 -1 0
739 1 -1.2 19.1583693851634 3.357056768686478 5.796254004069219 -1 2 0
2381 1 -1.2 19.669074404612935 5.466984214535188 7.180869312635005 0 -2 0
372 2 2.4 22.137583330684762 7.521236681800732 3.0475167664373437 0 2 -1
594 2 2.4 21.211236910276384 5.485693680823905 7.574645281490148 1 1 1
2426 1 -1.2 23.226085677516657 6.929581409887906 4.12556968121566 -2 0 0
1959 2 2.4 23.512889922075484 6.10940044584909 5.502811755882286 0 0 0
2122 1 -1.2 23.954003536514634 4.600929935420179 5.068806311248801 -2 0 1
792 2 2.4 27.307474831738432 6.223678564075073 3.787619753113632 1 -3 -1
1899 2 2.4 25.363554016906534 3.928454733660696 4.5870663620431396 1 0 1
1687 1 -1.2 26.135979605455876 5.047979261168123 3.6162287121954777 0 -2 0
824 1 -1.2 26.356864494541597 3.9912963868748137 5.893112292258607 -1 -2 -1
2677 1 -1.2 24.782947938279193 6.675038381814277 6.434494673898347 1 0 0
138 2 2.4 27.903503690575153 4.453750356833459 6.298217914296912 -2 1 1
677 1 -1.2 25.062167542532833 2.550000090454568 3.8155198635623098 -1 -2 0
481 1 -1.2 28.046106329518935 5.669668339917241 5.184319692810871 -4 0 1
101 1 -1.2 28.749199052444038 3.106656071522818 5.988572727418884 -1 0 -1
1692 2 2.4 32.179445986181435 5.092782879880184 4.017375540223853 0 0 0
1937 1 -1.2 30.805888472369425 5.989280629099097 3.8002808957572265 1 1 0
2939 1 -1.2 32.53836946311013 4.555097538021906 5.504853268654139 0 0 1
585 2 2.4 32.52194447270655 4.238755457397542 7.128709731381894 1 0 -1
370 1 -1.2 32.24685868759208 3.8480168152124596 2.9011747642012113 1 -2 0
915 2 2.4 30.025206757068652 7.057406118520337 2.7897185391153156 -1 2 1
2156 1 -1.2 32.71499790331667 2.6007395255693995 7.319277795726654 0 1 -2
518 1 -1.2 28.448741549992764 6.44105942255634 2.654871337152944 -2 2 0
1469 1 -1.2 28.447000155732443 5.051449495890887 7.693571594330201 -1 1 1
2960 1 -1.2 38.45349655811197 5.534589202901737 4.143397960631807 1 1 1
565 1 -1.2 33.355363757767435 6.185800341152044 3.6880456216606046 -1 0 3
2857 1 -1.2 38.376057095927806 3.4444650542807986 7.280835426265673 0 -3 0
666 2 2.4 37.05500393154778 4.6330837691310744 4.0277527709936916 -1 0 3
392 1 -1.2 36.59092426173132 4.0242872167356 5.475926769257022 1 1 -2
869 1 -1.2 35.91683330931945 5.536436446826498 3.2527965002108905 0 -1 1
252 2 2.4 36.85760323190866 3.140691571645607 6.856179532550006 1 1 1
1785 2 2.4 34.85791937041724 6.747448730620113 3.2784493750445654 -1 2 0
221 1 -1.2 37.24765377693605 3.345988136187035 3.038285348647804 -2 4 0
2771 1 -1.2 3.1502071299762235 8.095614428286396 3.66509382087247 0 -2 4
1450 1 -1.2 5.5037669063672165 9.429213158733772 4.753711465938983 -4 -1 2
2745 2 2.4 5.475090686111442 10.392692989381235 6.065588052364775 1 3 1
2914 1 -1.2 6.038124233557635 11.82231569363249 5.537691987269772 2 -1 1
439 1 -1.2 3.977572646135405 10.562759537880176 6.6146810214384795 -1 1 0
2051 1 -1.2 3.0783678248965396 11.045202941583632 3.635940219248803 0 2 0
2973 2 2.4 2.6850981754700025 11.484076434225557 7.075555440967475 0 -1 -1
201 2 2.4 6.817896314937503 8.662053604477517 4.139807559260282 0 0 0
1511 1 -1.2 6.385767914640876 9.686657985094175 7.262406151880056 0 1 -2
2718 2 2.4 2.657518296927929 12.51731120206467 4.308194586265282 -1 2 1
1541 1 -1.2 6.643139234097394 8.248650124840278 2.5218744169149927 -1 0 4
3 2 2.4 38.61636473026235 9.505115631456498 3.3984203165459346 -1 1 0
265 1 -1.2 11.448525416694777 7.993996225576114 5.443919592328184 0 1 2
2062 1 -1.2 8.038455885683234 9.726630815563535 4.261340230673021 -1 2 1
1332 2 2.4 9.194384143493526 10.903923338629193 4.454111866518376 -2 -3 0
559 1 -1.2 10.600187351719836 10.116773075952551 4.059007332827283 -2 2 2
2655 2 2.4 11.795444614609421 9.052102522921068 4.179431426205596 -2 1 -1
1823 1 -1.2 9.414638534664071 11.537149722354409 5.910392811306916 -1 -2 -1
1325 1 -1.2 9.017318309744912 12.0694841871852 3.3339041685240374 -1 0 -1
1527 2 2.4 9.963389533160584 12.499624472493705 7.18150949254219 1 0 -1
1010 1 -1.2 12.084251130139132 8.00347642890906 2.938982147854557 2 1 -1
1411 1 -1.2 13.122788951954439 9.898491737297025 4.551890169757658 1 2 1
1368 2 2.4 16.78103415381808 8.66214184177069 3.41239144522869 -1 0 -3
2891 1 -1.2 15.856932482299438 9.821958384399368 4.104337376986736 1 0 0
1341 2 2.4 14.635719878727333 10.064800579897803 5.210523619682412 -1 -1 3
2950 1 -1.2 14.836228025529802 11.515253661553068 5.966718844276564 -1 2 1
2108 1 -1.2 14.679562336928782 8.844422258585107 6.313845561192386 0 1 -2
1862 1 -1.2 15.577653837478103 12.488863844016524 2.4466893518278936 0 1 -1
1437 2 2.4 13.705338084516788 8.416847407754751 7.518805149417561 -1 0 1
373 1 -1.2 18.36069734350973 8.796207587111017 3.8180363130003463 -1 3 1
1906 1 -1.2 20.93525968239264 8.267344132508116 3.9077738509387467 1 1 -1
1116 2 2.4 19.80398703663425 9.324562603202313 4.41135906590478 -1 2 2
2867 1 -1.2 19.987585357649106 9.547165142942678 6.032991671191949 1 1 2
683 1 -1.2 19.993928267593322 10.752506829906741 3.637733805475133 -1 -2 2
525 2 2.4 19.467787437842347 12.177322113475299 2.9669887121095084 -1 0 -2
1953 2 2.4 22.712326155782044 12.431027969804738 7.0007941382151575 -1 0 0
1310 1 -1.2 21.45681840805318 11.350088997863967 7.352987250790482 0 -1 1
2540 1 -1.2 17.990434813272465 12.63995995685868 3.458813299550666 1 0 3
2076 2 2.4 20.462083832481877 10.086621576838072 7.529277565546262 1 0 0
1108 1 -1.2 26.596958124914945 7.646447997925923 4.142644598649481 -1 -2 1
403 1 -1.2 23.993241206591502 11.536610335443598 6.615035276939791 -3 1 3
1030 1 -1.2 25.391219513939628 9.964844861231894 4.770839084688859 0 1 1
1923 2 2.4 25.431649461206963 10.87827285731001 6.137985590995687 -1 -1 0
2898 2 2.4 26.281028233138027 9.182603085059306 3.678828388444094 1 0 1
140 1 -1.2 26.48824033659927 12.103536329489108 5.811608468487227 2 -1 -2
242 1 -1.2 27.721288213204975 9.92582619954748 3.5433009113420546 3 2 2
1549 1 -1.2 26.098863482606284 10.03601462454765 7.3710101945789885 -2 1 -1
2734 1 -1.2 25.549123699299738 9.161874762165754 38.480245953150245 -2 2 1
287 1 -1.2 30.008050062094927 11.040359752539647 4.491405077824152 0 1 -1
1209 2 2.4 29.3315299232552 10.119026574031963 3.3719743120593506 0 1 -1
610 1 -1.2 32.638168001900354 11.576610784963211 4.8173910169162095 2 0 -1
2751 2 2.4 31.239382583713788 11.331282099995754 5.56041854079019 -1 0 0
2171 1 -1.2 31.146426837202966 10.009136845816798 6.513555764121014 1 1 2
148 1 -1.2 29.944898089788477 8.566110719488666 3.3236997721672443 2 2 2
1784 1 -1.2 28.863336241457052 9.450924972099715 7.664252865384143 0 0 -1
174 2 2.4 30.406920833167455 9.002229134535426 7.644478529254354 -1 1 -1
20 1 -1.2 35.33617067280785 7.852142847834583 4.35439639110506 0 1 1
2491 1 -1.2 38.16799591345259 11.983618988768958 5.719852065623116 1 0 0
2372 1 -1.2 34.10645731557999 11.970743055611202 2.6740606862272127 -2 1 -2
2610 2 2.4 34.17502251042413 11.710677583433387 4.279716598992543 -1 -1 0
2399 1 -1.2 37.356135831939376 9.40143916401988 4.412369708854875 2 0 1
2365 1 -1.2 34.98704289140605 10.407888636998388 4.778317967673718 0 0 -1
1824 2 2.4 35.92590270986722 9.166773060171941 5.171799755120013 1 1 0
710 1 -1.2 36.23907163663488 8.953190669900687 6.786974237943631 0 1 2
364 1 -1.2 4.009854031775196 13.319572264717022 4.815698108926143 2 1 0
1000 1 -1.2 6.249651451610483 13.688298177657202 3.5192922336427825 -1 0 -1
204 2 2.4 5.663223278793113 13.375016719262211 5.020450570633015 0 1 0
1969 1 -1.2 6.2132040247281175 14.526773662505327 6.123051202109545 0 0 3
1559 1 -1.2 6.022451601039006 17.04853185588621 6.852214038910773 0 2 0
1716 2 2.4 3.4929034731226807 17.61718184433453 2.889687156687512 1 3 0
1063 1 -1.2 2.665082998249639 16.19347526243433 2.6747755705958784 0 1 1
548 1 -1.2 3.544113803915557 17.761489918499528 4.52289710741173 1 -2 -1
1650 2 2.4 38.64875306240576 17.619936367899115 5.684726695514279 1 2 2
2752 1 -1.2 10.301339996457397 16.90087508054429 4.190578171744809 2 2 -1
849 2 2.4 11.375039775184565 17.264794549355237 5.417150645970972 0 -1 -1
979 1 -1.2 10.865145821241416 13.797244626288348 6.758031249366486 0 -2 -2
267 2 2.4 10.603580985114396 16.101480870337518 2.8317280776346823 0 -1 -1
848 1 -1.2 12.144793603404795 15.847347558762886 5.821373770464547 -2 1 -1
2241 2 2.4 12.308061252859504 14.591594049552379 6.893645386474577 -1 1 0
2488 1 -1.2 10.23101931852762 14.485056171679963 2.9718984093363874 1 -2 0
1620 2 2.4 9.418305153661521 13.236182904459104 38.49793919854827 2 -1 -2
2284 1 -1.2 10.8159043552074 17.784388061708732 6.851959259864589 2 2 0
6 2 2.4 15.08306233279913 13.083418078938166 6.213105164922146 -1 0 1
502 1 -1.2 15.769844176481298 13.552476744854605 4.831550246337888 -1 -1 0
1254 2 2.4 16.517521537074032 13.3997629323213 3.4041018948521167 1 0 2
977 1 -1.2 13.678902837201159 13.81722490611434 6.537124869266886 2 -2 1
878 1 -1.2 16.503123420427166 17.480650223384842 3.7324265017902407 1 0 2
923 1 -1.2 16.76047497961857 14.92464219190147 2.8700341709313975 1 -2 0
1562 1 -1.2 15.789950344508831 17.799753044720816 6.266241403924086 0 1 1
2073 2 2.4 16.40621985928623 16.458891788834215 2.48655372779072 -2 -1 1
1739 1 -1.2 20.523753563833242 13.352557497512112 3.488902923552877 1 -1 3
2388 2 2.4 21.598664104622515 14.21422207299371 4.400806943380149 -1 0 -2
2757 2 2.4 20.631757888426034 16.463517547494554 6.473663265008438 2 2 2
2185 1 -1.2 20.759822579124567 15.385555631868254 5.20868666689319 -1 -1 1
158 1 -1.2 22.243172999975208 13.367052689549888 5.691514328688817 0 -1 -1
2663 1 -1.2 22.230740951376884 16.647329987751675 6.948075250566832 -1 2 2
1930 1 -1.2 22.58638622726397 14.863114813835239 3.2353166851105897 2 1 0
1888 1 -1.2 19.85654862715524 17.899401470018084 6.1236434577772645 -2 -3 -1
419 1 -1.2 19.745976109728634 15.862298257376358 7.708083874464369 -1 0 0
1755 2 2.4 27.558274789600468 13.336984416442109 6.005987046793785 -3 1 -2
1642 1 -1.2 26.525506674819948 14.608168376863146 6.241637942073187 -2 1 0
1329 2 2.4 26.535688554964047 16.04025890989245 7.058146602626617 -1 2 0
500 1 -1.2 25.116055168190634 16.800879380560303 7.163290640217539 -3 0 1
581 1 -1.2 27.83546689653309 16.820743644997293 6.422891229670696 -1 -1 3
2926 1 -1.2 31.058941659794197 12.85854963317855 6.295475722540926 0 -4 2
2747 1 -1.2 28.49260266778379 13.653362840555536 4.64530129850294 1 0 0
2621 1 -1.2 29.140326930048655 16.09887373673717 4.307997336392394 1 1 1
1677 2 2.4 29.11558515994892 14.655474802683266 3.541001905706257 2 0 1
2292 2 2.4 29.358432508670344 16.716931892896987 5.773883469431633 -1 0 1
1091 1 -1.2 30.091898953519372 15.466465724257791 6.640378042142967 0 0 -1
2878 1 -1.2 30.678495089605637 14.514900803955834 3.061499267582639 -1 -1 2
1340 1 -1.2 32.570899580308804 17.115394654441324 5.959815012808123 1 0 3
527 1 -1.2 33.017604163708015 15.332270230364907 3.956849334294686 -3 -1 1
1215 2 2.4 30.283737610144108 13.939583975302538 7.2642911413601965 0 -1 0
827 1 -1.2 28.67475026071804 13.366005736519234 7.266047707731815 -1 1 3
1599 2 2.4 32.13706212353571 15.105853077710991 2.585137913454876 -1 1 0
2257 1 -1.2 38.52502860412305 16.214007278944315 6.489941675256005 0 -1 0
1251 2 2.4 33.62028509465998 16.00934200265528 5.351052441264214 -1 1 0
28 1 -1.2 34.99526998189133 12.963999614134693 5.013323398500749 0 0 2
37 1 -1.2 38.17107109496164 13.59804996462002 3.3373055610437543 1 0 0
1009 1 -1.2 34.023953821851805 14.896843551290395 6.439259621351186 1 0 2
981 2 2.4 35.132892878390905 13.675572568513239 6.480354354250963 -2 0 0
2969 1 -1.2 34.86022646430126 16.962729057452705 4.900653894488794 0 0 1
1357 1 -1.2 36.56829888480554 14.330090350099137 6.945106942504063 0 -3 2
830 1 -1.2 35.91034122786326 17.448053836864716 2.5500473944978763 0 1 2
194 1 -1.2 37.30807695125465 17.92773225609733 4.831298964834767 0 0 3
2967 2 2.4 6.5986942299145 18.629375053371053 7.069713033783129 1 0 -1
2974 1 -1.2 3.673993643121639 21.219360502327085 6.092175190567975 0 -1 0
2137 1 -1.2 2.699861042259629 18.87529121249408 6.652975753388604 0 1 0
2811 2 2.4 3.6117133412384743 22.82423382061616 5.624244181456886 1 0 2
1398 2 2.4 3.703941348483238 20.03175776121716 7.197306154180619 0 1 0
1199 1 -1.2 5.2589403364553196 19.501756804846416 7.331822579247669 0 -1 -1
2913 2 2.4 6.691124396557212 22.94223402279742 5.426981068213894 -1 0 1
1846 1 -1.2 7.454355378070875 21.551349881294147 4.878266885804258 0 1 0
290 1 -1.2 5.118420192566706 23.072410176555262 4.97317241550166 2 0 0
1025 1 -1.2 7.066248577004145 22.953301825505367 6.996783433251877 0 0 1
721 1 -1.2 2.7235101747546153 18.88625085163574 38.44507179247257 3 0 -1
487 1 -1.2 7.558680441385701 19.161560145624314 5.828652490096237 -1 2 0
452 1 -1.2 8.084497159321167 19.68637683974718 3.125891637202943 3 -2 -1
1857 2 2.4 8.181542126302762 20.123345563342824 4.694335329671034 1 2 0
289 1 -1.2 9.858666379519335 20.464147584540793 4.828552903813163 1 -1 2
1038 2 2.4 10.901920680500501 21.272750559374053 3.7932745946647497 1 1 -1
1480 1 -1.2 12.423301133357292 20.742453258549677 3.9499959883041584 1 -1 0
383 1 -1.2 12.407609473682363 18.399622345823722 4.956241800417432 0 -1 1
1805 1 -1.2 12.340224883288888 22.783317459307593 7.303243773049693 -2 0 -3
2993 1 -1.2 10.683791853462248 22.857923818189743 3.9619738569337577 0 2 0
2906 1 -1.2 13.246458413506735 20.38048843898815 6.396577461900928 2 0 1
279 2 2.4 16.24871099024071 18.612887232928824 4.878147240711122 1 1 1
2766 2 2.4 13.350967836674407 19.750008599545936 4.904288485399134 1 1 -2
1616 1 -1.2 14.901969597223411 19.471787957439954 4.545542642137591 0 1 0
2780 1 -1.2 14.90515580497539 22.298831114519988 6.8055731216752005 0 -2 0
2126 1 -1.2 17.657269225501736 19.27719629839651 5.277341094575666 -1 1 0
387 2 2.4 13.516139825847313 21.654640627392915 7.332356923883544 0 -2 1
735 2 2.4 19.274339064517047 19.328182971558338 5.655566905636661 1 -1 -3
473 1 -1.2 20.103096858128666 19.632876617178326 4.288809590456065 1 0 3
2353 1 -1.2 22.283707297780513 20.798444650961446 3.366392477406433 -2 -3 2
550 1 -1.2 19.576570895291564 20.509550973850246 6.781952272510463 0 1 1
1542 2 2.4 20.750094458508723 20.400572328757537 2.979690319723073 -1 -2 0
623 1 -1.2 19.700181903005944 21.712677834113325 2.700818289798205 1 -1 1
540 2 2.4 18.49858843885598 22.890625359943012 2.79205854341932 0 0 -2
2925 2 2.4 23.75035997298821 21.349875682340315 3.7836247057114503 1 0 0
2711 1 -1.2 24.10556206956014 21.154815284305567 5.34934454988183 1 -2 1
1797 2 2.4 24.26117971311285 22.09314393211572 6.628771073287363 1 -1 -1
745 1 -1.2 24.96818083736532 20.731826117238022 2.886758673352749 -1 2 0
2498 1 -1.2 23.671491965340557 22.96102196450978 3.4295695525925867 0 -1 2
1229 1 -1.2 25.669608408221585 22.929816271171205 6.6408421294591875 0 0 -1
2806 1 -1.2 30.209150210132773 18.088907913198724 5.581457878614799 -2 0 0
367 1 -1.2 32.140994425867575 18.48731758491427 3.715297416973786 0 -2 2
2469 2 2.4 31.77251835016191 18.413707289237998 5.350204485713496 0 0 -1
2044 1 -1.2 32.3294473782412 19.786136582668206 6.063476875732552 -2 0 2
1999 1 -1.2 32.42037164891282 22.41160559685419 6.628364818458299 -2 -1 0
447 2 2.4 31.96531172186315 20.914832613712193 7.163253620594088 1 -1 0
2234 1 -1.2 30.357359464727814 20.902025254276825 7.353681732328748 0 1 -1
891 2 2.4 35.828172499148735 18.027189897157218 4.124740820691682 1 0 2
582 2 2.4 35.79522618937447 21.09769350097315 3.562478097763028 0 0 3
1613 1 -1.2 35.33673844097998 19.61438853341575 4.027335841232166 -2 -1 1
2948 1 -1.2 35.872099190945626 22.0092340510316 4.889868900516197 0 2 -1
2401 1 -1.2 37.3219158479912 20.772101272899487 3.0907615755663276 -2 -2 1
672 2 2.4 36.95150455323135 22.77626237316878 5.89789707980303 -2 0 1
758 1 -1.2 37.26219324622886 21.760352139599746 7.188807497829356 1 0 1
2319 2 2.4 3.70591386163913 25.57548853847098 6.872042523873107 2 1 -1
2462 1 -1.2 3.6815999804058404 23.900000606959033 6.84395535177071 3 1 0
2635 1 -1.2 5.173691140912153 26.196528324227625 6.7693272120098005 0 -2 0
1362 2 2.4 2.7368873564134377 26.69842458705706 3.905068024543761 0 0 -1
205 1 -1.2 3.949307928188058 26.15402761945325 2.957655436168002 1 -2 -1
1382 1 -1.2 2.892241235872866 26.046053225247555 5.492781252636508 -1 0 1
2375 1 -1.2 6.212401471434092 24.88189220597756 2.6700341494979813 2 0 1
2588 1 -1.2 2.8539444293245504 28.340193911119353 4.07224833742467 0 -3 3
2567 1 -1.2 7.537102183241442 24.126713010105075 4.7017578454467515 -1 1 2
1768 1 -1.2 7.804261657106522 27.07303136230959 6.542177664983338 -2 3 -2
1203 2 2.4 7.656175795163587 25.063523661089587 3.4097569820779885 -2 0 1
1394 1 -1.2 8.047057165339291 26.588672572224528 3.902053619033053 -1 -3 1
2323 1 -1.2 9.726063346416131 23.518206255731762 7.2222154366484945 2 -1 2
1464 2 2.4 8.284021056289937 27.707428444279923 5.087210046900752 0 2 1
607 1 -1.2 11.319064982030225 25.441520439603845 3.5385020468613066 0 0 0
1477 1 -1.2 11.912031460451221 25.071032152731497 6.084104227746989 0 1 -1
2376 2 2.4 12.426062857651383 25.737197045041768 4.705544762585722 0 1 1
2025 2 2.4 10.56823013582048 24.118839781801668 2.8849609255332807 1 0 -1
2272 1 -1.2 12.451631924847382 27.304417410467757 4.892609566498455 -2 1 1
717 2 2.4 11.338082347134051 24.059681461786948 7.309409330972994 1 -1 -1
1630 1 -1.2 9.901333860590707 27.9543718396411 5.1284667353035776 3 1 0
881 1 -1.2 8.998392365495215 24.475628910276544 2.611438717902419 1 3 3
1636 1 -1.2 15.280821005197199 23.054456891731466 3.6214458704389356 0 3 1
1837 1 -1.2 17.68785368969398 23.154372628139566 7.019561528387027 0 0 0
1590 2 2.4 16.033650314061994 23.468581355538564 7.066226181723123 3 -2 -2
1593 2 2.4 15.354784000523825 24.568027103250724 4.255863992063075 2 -1 1
1349 1 -1.2 15.841728859137223 24.477232803002245 5.799469143429993 2 0 2
2551 1 -1.2 13.85657607032017 25.11714795445238 4.22386348976419 0 0 0
2593 1 -1.2 16.41015881927199 25.56173085412307 3.3904063242961904 -1 -2 -1
2163 2 2.4 17.436938602167864 26.847535625258164 3.03484015697817 -1 0 0
2894 1 -1.2 17.788086023569996 27.752540263142503 6.278273095845054 -1 0 0
31 1 -1.2 18.292013580459127 23.165041215798222 4.398808996919185 2 1 -1
146 1 -1.2 20.400343129602852 23.324026017546597 5.987239567349353 2 0 1
1370 1 -1.2 18.810524534364358 26.806308393079068 3.99110328104974 -1 1 0
1791 2 2.4 18.79208700109107 23.71022300877146 5.944199318063027 0 1 1
2532 2 2.4 19.045726115906596 26.909157941898044 5.625993237009076 -1 0 1
166 1 -1.2 18.904628155859232 25.342269485925204 6.07443574579181 1 -1 -1
1965 2 2.4 21.507859488853242 23.51118697316745 7.133829583516895 -2 -2 0
154 1 -1.2 20.41604094622599 27.79345871634664 5.932068648010326 1 1 3
1514 1 -1.2 22.857036557528616 27.79416230495513 2.572876615164703 -2 -1 0
2446 1 -1.2 22.96102427373446 23.07893510560305 6.65613790110834 -1 -2 2
1513 1 -1.2 23.53892043605943 26.434444372381467 6.501265976238904 0 -1 2
2863 1 -1.2 24.728528795186275 27.28961370726462 4.444673851236151 -2 0 -1
2937 2 2.4 24.2695865680435 26.93383710945837 2.895407590682316 1 1 0
1008 2 2.4 27.07051289751546 23.56474874901155 7.156119168037184 0 1 0
2592 2 2.4 24.109914282173147 27.816323427840903 5.83496267778947 -1 -2 0
2837 1 -1.2 28.117248834653058 24.431064059810662 6.144411853534501 0 -1 0
1582 1 -1.2 27.553113509314077 28.20967139359213 6.861499129030905 -1 1 -2
2972 1 -1.2 23.89340257199752 25.39030282261747 2.461545667272396 1 -1 1
2558 1 -1.2 29.391488306403765 25.330540855957132 3.875734972708465 -2 1 2
1462 1 -1.2 29.599747818782404 26.700737716198727 6.175104347523517 -2 -1 2
1884 2 2.4 29.456184643558796 25.223930763145244 5.484421953002057 0 2 1
625 1 -1.2 30.845959690099892 24.420287848033393 5.826414963933827 -1 0 -3
42 2 2.4 32.135804281137716 24.002984003925484 6.748624896670291 1 0 1
1885 1 -1.2 32.962775554641496 26.52928463415821 2.724405313379796 0 -2 2
657 2 2.4 29.136895261969702 28.235974240800015 6.571158137223537 1 -1 0
499 1 -1.2 33.48097752136851 24.7475018963356 6.277871200616409 0 0 -1
2795 1 -1.2 38.343329677993516 23.028220370503057 5.074210467919858 -2 -1 3
152 1 -1.2 36.14170315584215 24.175452193095246 6.334142976886525 -2 4 0
222 2 2.4 34.99800641996771 25.235331105243727 5.774259724192786 -1 1 0
658 1 -1.2 35.45876160321294 26.71012368816622 6.345601530134401 -1 -1 -1
1369 1 -1.2 34.787178011439664 25.102422823093278 4.146547969394774 -2 2 0
92 1 -1.2 37.615472448484105 26.359880440347776 3.1799672260692358 2 2 3
2943 2 2.4 34.11258029376343 25.37384779394772 2.610560354304625 0 2 0
483 2 2.4 36.08582201973815 28.116601750019477 6.892586693599905 -1 1 2
1211 1 -1.2 35.68803538202151 28.22425392214347 3.0181125251000527 1 0 -2
931 1 -1.2 4.5852604464558775 29.579983184222456 5.73433233067443 -1 2 1
2658 2 2.4 3.6435346908579618 29.782400889619336 4.43419419918284 2 -2 0
776 1 -1.2 4.495570094284116 30.202705221590527 3.0737039180481185 0 0 2
2212 1 -1.2 6.994461653706465 31.925558335812696 4.827709421830165 0 -1 2
1392 2 2.4 4.912315398504202 29.67737139279369 7.287292902374852 1 -1 0
2231 1 -1.2 6.921847810537766 30.751433222966256 2.5805778413805327 1 2 -4
1492 1 -1.2 2.599010593520217 31.00483049932768 4.710683275336846 0 -2 0
533 1 -1.2 5.3719515955888735 31.144555472164555 7.608768486134112 0 2 0
362 1 -1.2 7.64388902812995 29.173303152150442 4.8248424677360635 -1 0 4
2058 2 2.4 7.68308637458621 30.628568384117056 4.0691745090737585 1 0 1
465 2 2.4 11.433611263481529 28.54916380056582 5.037702746198243 -1 0 1
2479 1 -1.2 11.475027545519229 29.685843467001376 3.8365539437297977 0 1 1
1104 2 2.4 10.780421038253758 31.15792469941841 3.51791827450359 1 0 -1
2671 1 -1.2 9.206888408190402 30.984903296839768 3.8145122264161087 -1 0 1
44 1 -1.2 11.322913122692418 32.24195219751361 4.6694480962251035 0 2 2
404 1 -1.2 11.907355587782748 29.362349245978898 6.342270064109412 0 -2 2
722 1 -1.2 16.61320236184762 28.20828890133786 3.4046994801476687 0 1 -1
258 2 2.4 16.837098509581622 31.1428085027944 6.442048484355492 -1 -2 2
2010 2 2.4 16.807253842920158 29.81296822071345 3.4632067236404307 2 1 2
2762 1 -1.2 16.5336479699508 30.460013394500727 4.95982192192627 -3 0 -2
208 1 -1.2 15.600403356584863 32.00603150055926 7.054456027844541 1 0 1
189 2 2.4 14.125150987281087 32.615672969898434 7.406103178333315 2 0 -1
2824 1 -1.2 17.22716411251985 29.945646794257367 7.532394683495643 2 -3 0
2758 1 -1.2 13.416134623637634 33.159100749491074 6.052930607632058 1 0 1
1231 1 -1.2 18.218263048353958 32.040726658089966 6.3067547093837195 0 0 0
2160 2 2.4 21.254214847815625 29.20466188656461 5.791022429069827 0 0 0
814 1 -1.2 20.617012959301725 30.002966914755152 4.534411109620024 -2 -1 -1
302 1 -1.2 21.272361724032088 30.276888396606125 7.033590006189325 1 0 -1
2341 1 -1.2 18.394675413787397 30.121502873223466 3.0917939778051666 1 1 -3
2879 1 -1.2 22.34521372784605 32.58701690235772 6.014570116219188 2 2 1
843 2 2.4 20.016082320079953 30.353571775046333 3.0258870014746835 0 -1 1
1279 1 -1.2 22.83363528317326 28.831338261043065 5.537572535643346 2 -2 1
326 1 -1.2 20.443363581963858 31.863079390408906 2.7569332915600606 1 -1 1
552 2 2.4 21.795843617486344 31.78739149292842 7.35543518698848 0 0 -1
1359 2 2.4 18.948450557507957 32.976042354898354 7.406279008133908 0 0 1
2625 2 2.4 21.26850113109281 33.24201271722491 2.4247384149763938 0 -1 -1
2942 1 -1.2 25.002929306585838 28.567344770746647 7.000991962682937 1 2 2
1781 1 -1.2 31.388392976954044 28.88087660632623 3.4367740005863654 2 0 0
2597 1 -1.2 32.23852694232042 29.059415044938447 6.721026593939497 -2 1 -2
236 1 -1.2 29.599557811542642 29.288638281684367 5.337622216331761 1 1 -1
1944 2 2.4 30.51723566780496 30.08010772878196 4.259813926542385 -1 -2 1
2860 1 -1.2 31.455118496939825 31.30556766309939 4.954970073377819 1 0 0
105 2 2.4 32.22906242539184 32.40106001490375 5.978641256336882 -1 -1 1
2455 1 -1.2 29.4763039521119 30.732239961153706 3.1813784390480375 0 -1 0
613 1 -1.2 31.049287712615516 32.81383785397239 7.075636124992775 -2 2 0
2645 1 -1.2 33.31844976774764 31.369171791725677 6.737731229321533 2 0 -1
2756 1 -1.2 36.58672699721435 28.83737386832349 5.455088843739253 0 -2 1
264 2 2.4 33.631167653396176 29.794854339824187 6.424203761737251 0 0 1
2754 2 2.4 35.73455003289117 29.39417307051891 4.167738801282447 -1 1 -1
742 1 -1.2 34.23779218232632 29.609547519335802 4.911523137921314 0 2 0
2831 1 -1.2 36.86232117888806 32.3319044514805 5.714261654713686 0 0 0
1374 2 2.4 37.52538165990243 31.861339433691693 4.2925236163518985 0 -3 0
1957 1 -1.2 36.46626873773221 30.764692112464623 3.642922306352748 1 2 0
917 1 -1.2 37.78380793406849 32.996487596849065 3.1865773193592326 -2 -2 1
1388 1 -1.2 34.77179805940396 29.03370415123057 7.345798947313827 -2 0 0
2352 2 2.4 37.11186836117818 32.25088417965205 7.314936166733694 -3 1 0
939 2 2.4 6.654257702832165 33.49093617655174 4.492718346606834 3 0 -1
427 1 -1.2 5.3699707671226395 33.59498653757419 3.459371371107548 -2 1 0
2478 2 2.4 6.8042473112511255 38.35089022659775 2.999059508149168 -1 0 -1
544 1 -1.2 6.308880560851484 34.37018570696782 5.847370407658505 0 0 -1
609 2 2.4 5.869571475418848 34.72177801655009 7.424206717994435 1 -1 0
2900 1 -1.2 7.513891146649785 36.87469635896544 3.1193564208009543 2 1 2
62 1 -1.2 7.864739207650527 34.22369206311839 3.6522518916945135 -2 -1 1
300 2 2.4 12.227608136918512 33.615739183941066 5.042573121475901 -1 0 -1
627 2 2.4 8.5995338324004 35.59573376434486 3.0274978318784433 0 -2 2
784 1 -1.2 11.388712554250905 34.788595397413594 5.833431741749118 -2 -1 -2
171 2 2.4 10.694206123068426 36.186745283642495 5.372037097050557 0 0 0
98 1 -1.2 9.733420708389048 35.98632842085321 4.113797771013477 3 0 0
532 1 -1.2 11.924505692668934 37.271300752918116 5.190996569747436 -2 0 -1
1709 1 -1.2 9.850619637834638 36.77577715602043 6.627416260031747 0 -1 1
764 1 -1.2 12.612947313375962 34.21375088138127 3.5813146897315673 0 2 3
961 1 -1.2 13.545028833357318 38.2122289979686 6.979217307058214 2 0 -1
1836 2 2.4 13.409274204878555 37.95488781035189 5.351994984690647 -1 0 1
2897 1 -1.2 16.53793354538665 35.26896054221286 5.568181714131297 1 1 -1
441 2 2.4 15.689511558166569 35.81787805680363 4.257899512828953 0 0 -1
2023 1 -1.2 14.496425051522596 36.82391159380611 4.767379119392491 3 -1 1
634 1 -1.2 15.1404284571339 34.66011847732539 3.2261408124665465 1 1 1
106 1 -1.2 16.668086604031032 36.78037053360734 3.4006952974543925 2 -3 -1
807 2 2.4 17.68048793829177 35.74111849980792 6.653028583816015 -1 1 -1
210 2 2.4 17.80949892048986 37.531447051132176 2.5457523149825123 2 2 -2
2301 2 2.4 13.769455074701328 34.323084275645726 2.4005031895531257 0 0 1
2285 1 -1.2 22.00437264930333 33.808960661403454 3.7633004584539993 -3 0 1
1865 1 -1.2 18.37450370836862 37.058594451235855 6.094625819977969 -1 -1 0
1817 1 -1.2 18.830891914164408 38.06974424615772 3.6920939864326465 -2 1 2
2196 2 2.4 19.346280651192654 38.1017360207815 5.237305522763145 0 0 -1
674 1 -1.2 20.85662094490545 37.53810904365393 5.431493761726228 1 -3 -1
45 2 2.4 22.238825709494286 36.920937330758626 6.044043749483721 -1 -1 0
161 1 -1.2 22.153420690985286 35.2888423575772 6.1304713289870305 -2 2 0
756 2 2.4 22.672085819451258 34.00319631238616 5.238338684777165 1 1 0
1705 1 -1.2 18.756945416695704 34.55247270381324 6.933422846943935 4 -1 0
1399 1 -1.2 22.654549056457007 37.76727382071901 7.371509708579273 0 -1 1
1993 1 -1.2 26.026434958011446 33.60875488535733 3.310103274768717 -1 -1 -2
2314 1 -1.2 23.30582853783209 37.130975171731286 4.777566571683455 1 -1 -1
1534 1 -1.2 24.238717022543835 34.27749366395089 5.063578309977259 0 -1 -1
914 1 -1.2 26.825424666928914 34.58653168810004 5.693305254631305 -1 0 2
1701 2 2.4 25.726294086452416 34.63536626118519 4.496662385954151 0 0 1
1850 1 -1.2 25.63363085033771 36.17190787979721 3.938773756601681 0 0 0
2934 2 2.4 24.48395877461525 37.3027208799314 3.5867598581422473 0 1 -1
720 2 2.4 27.78800333619871 35.49788095364342 6.648733283121044 -1 -2 2
619 1 -1.2 28.557997285992066 36.65406347498613 5.811439496095547 0 0 -1
301 1 -1.2 33.07335615378208 33.690173151559435 5.467224327264764 0 -4 0